 Gaussian 16, Revision C.01,

 ----------------------------------------------------------------------
 # opt freq=hinderedrotor M062X/6-311++g(d,p) symm=veryloose press=0.98
 7
 ----------------------------------------------------------------------

 -----
 CCC_1
 -----
 Symbolic Z-matrix:
 Charge =  0 Multiplicity = 1

 SCF Done:  E(RM062X) =  -119.100366924     A.U. after   10 cycles
 SCF Done:  E(RM062X) =  -119.100629269     A.U. after    9 cycles
 SCF Done:  E(RM062X) =  -119.100645911     A.U. after    7 cycles
 SCF Done:  E(RM062X) =  -119.100646233     A.U. after    6 cycles
 Optimization completed.
    -- Stationary point found.

 1\1\GINC-LOCALHOST\FOpt\RM062X\6-311++G(d,p)\C3H8\ROOT\25-Jul-2022\0\\
 # opt freq=hinderedrotor M062X/6-311++g(d,p) symm=veryloose press=0.98
 7\\CCC_1\\0,1\C,1.0044619435,0.0510549463,0.0623219147\C,2.5311049213,
 0.0475130056,0.0969240653\C,3.0727757936,-0.0979254754,1.5172370413\H,
 0.6240009888,0.1553028088,-0.9557345256\H,0.6049982289,0.8770442309,0.
 6568284925\H,0.604999715,-0.87828337,0.4770843168\H,2.909463146,0.9734
 560697,-0.3461369466\H,2.9094646215,-0.7694161533,-0.5246057013\H,2.72
 76660437,0.7241486989,2.1499778579\H,4.1644479395,-0.0997152002,1.5347

 Normal termination of Gaussian 16 at Mon Jul 25 13:49:26 2022.

 ----------------------------------------------------------------------
 #N Geom=AllCheck Guess=TCheck SCRF=Check GenChk RM062X/6-311++G(d,p) F
 req
 ----------------------------------------------------------------------

 Structure from the checkpoint file:  "CCC.chk"
 -----
 CCC_1
 -----
 Charge =  0 Multiplicity = 1

 SCF Done:  E(RM062X) =  -119.100646233     A.U. after    1 cycles

 The electronic state is 1-A1.
 Alpha  occ. eigenvalues --  -10.52862 -10.51988 -10.51986  -0.87869  -0.76984
 Alpha  occ. eigenvalues --   -0.66619  -0.52745  -0.50460  -0.46134  -0.44313
 Alpha  occ. eigenvalues --   -0.39535  -0.39504  -0.38634
 Alpha virt. eigenvalues --    0.00157   0.01962   0.02117   0.02352   0.04705
 Alpha virt. eigenvalues --    0.05412   0.05536   0.06193   0.08259   0.10560
 Alpha virt. eigenvalues --    0.11696   0.12457   0.13100   0.13426   0.13959

 Mulliken charges:
               1
     1  C   -0.476198
     2  C   -0.219490
     3  C   -0.476198
     4  H    0.149660
     5  H    0.144526
     6  H    0.144526
     7  H    0.147232
     8  H    0.147232
     9  H    0.144526
    10  H    0.149660
    11  H    0.144526
 Sum of Mulliken charges =   0.00000

 Dipole moment (field-independent basis, Debye):
    X=              0.0000    Y=             -0.0000    Z=              0.0883  Tot=              0.0883
 Quadrupole moment (field-independent basis, Debye-Ang):
   XX=            -21.5889   YY=            -22.3457   ZZ=            -22.0731
   XY=             -0.0000   XZ=             -0.0000   YZ=             -0.0000

  Exact polarizability:      35.576      -0.000      41.487      -0.000      -0.000      37.281
 Approx polarizability:      42.147      -0.000      41.770      -0.000      -0.000      42.351

 Optimization completed.
    -- Stationary point found.

 1\1\GINC-LOCALHOST\Freq\RM062X\6-311++G(d,p)\C3H8\ROOT\25-Jul-2022\0\\
 #N Geom=AllCheck Guess=TCheck SCRF=Check GenChk RM062X/6-311++G(d,p) F
 req\\CCC_1\\0,1\C,1.0044619435,0.0510549463,0.0623219147\C,2.531104921
 3,0.0475130056,0.0969240653\C,3.0727757936,-0.0979254754,1.5172370413\
 H,0.6240009888,0.1553028088,-0.9557345256\H,0.6049982289,0.8770442309,
 0.6568284925\H,0.604999715,-0.87828337,0.4770843168\H,2.909463146,0.97
 34560697,-0.3461369466\H,2.9094646215,-0.7694161533,-0.5246057013\H,2.
 7276660437,0.7241486989,2.1499778579\H,4.1644479395,-0.0997152002,1.53

 Normal termination of Gaussian 16 at Mon Jul 25 13:50:03 2022.

 ----------------------------------------------------------------------
 # freq=(readfc,hinderedrotor) temp=200 press=0.987 geom=allcheck guess
 =read
 ----------------------------------------------------------------------

 Structure from the checkpoint file:  "CCC.chk"
 -----
 CCC_1
 -----
 Charge =  0 Multiplicity = 1

 Normal termination of Gaussian 16 at Mon Jul 25 13:50:04 2022.

 ----------------------------------------------------------------------
 # freq=(readfc,hinderedrotor) temp=250 press=0.987 geom=allcheck guess
 =read
 ----------------------------------------------------------------------

 Structure from the checkpoint file:  "CCC.chk"
 -----
 CCC_1
 -----
 Charge =  0 Multiplicity = 1

 Normal termination of Gaussian 16 at Mon Jul 25 13:50:05 2022.

 Structure from the checkpoint file:  "CCC.chk"
 -----
 CCC_1
 -----
 Charge =  0 Multiplicity = 1

 Structure from the checkpoint file:  "CCC.chk"
 -----
 CCC_1
 -----
 Charge =  0 Multiplicity = 1

 Normal termination of Gaussian 16 at Mon Jul 25 13:50:35 2022.
 Normal termination of Gaussian 16 at Mon Jul 25 13:50:35 2022.
 Normal termination of Gaussian 16 at Mon Jul 25 13:50:36 2022.
 Gaussian 16:  ES64L-G16RevC.01  3-Jul-2019

                         Standard orientation:
 ---------------------------------------------------------------------
 Center     Atomic      Atomic             Coordinates (Angstroms)
 Number     Number       Type             X           Y           Z
 ---------------------------------------------------------------------
      1          6           0       -0.000000    1.266580   -0.261051
      2          6           0        0.000000   -0.000000    0.591958
      3          6           0       -0.000000   -1.266580   -0.261051
      4          1           0       -0.000000    2.168074    0.354875
      5          1           0       -0.882253    1.299864   -0.905868
      6          1           0        0.882253    1.299864   -0.905868
      7          1           0       -0.875993   -0.000000    1.247294
      8          1           0        0.875993   -0.000000    1.247294
      9          1           0       -0.882253   -1.299864   -0.905868
     10          1           0       -0.000000   -2.168074    0.354875
     11          1           0        0.882253   -1.299864   -0.905868
 ---------------------------------------------------------------------

                      1                      2                      3
                     A2                     ?A                     ?B
 Frequencies --    215.9726               278.0135               372.1185
 Red. masses --      1.0286                 1.1333                 2.0504
 Frc consts  --      0.0283                 0.0516                 0.1673
 IR Inten    --      0.0000                 0.0000                 0.0540

                      4                      5                      6
                     ?C                     ?D                     ?E
 Frequencies --    753.0039               891.3059               913.2616
 Red. masses --      1.0795                 2.4679                 1.1018
 Frc consts  --      0.3606                 1.1551                 0.5414
 IR Inten    --      3.3171                 1.0664                 0.0000

                      7                      8                      9
                     ?F                     ?G                     ?H
 Frequencies --    934.3511              1078.3312              1180.8081
 Red. masses --      1.1838                 2.3195                 1.8138
 Frc consts  --      0.6089                 1.5891                 1.4900
 IR Inten    --      2.4413                 0.6630                 1.3663

                     10                     11                     12
                     ?I                     ?E                     ?J
 Frequencies --   1213.4809              1317.7814              1364.9312
 Red. masses --      1.6601                 1.1246                 1.3934
 Frc consts  --      1.4403                 1.1506                 1.5294
 IR Inten    --      0.2665                 0.0000                 0.7857

                     13                     14                     15
                     ?J                     ?K                     A2
 Frequencies --   1409.0819              1422.4852              1494.3058
 Red. masses --      1.3453                 1.2435                 1.0365
 Frc consts  --      1.5738                 1.4825                 1.3636
 IR Inten    --      8.0801                 5.0970                 0.0000

                     16                     17                     18
                     A1                     ?L                     B1
 Frequencies --   1496.0579              1501.1094              1512.9406
 Red. masses --      1.0449                 1.0524                 1.0399
 Frc consts  --      1.3780                 1.3972                 1.4025
 IR Inten    --      0.0000                 2.8897                17.8614

                     19                     20                     21
                     ?L                     B2                     A1
 Frequencies --   1517.0961              3053.6039              3054.8681
 Red. masses --      1.0817                 1.0356                 1.0410
 Frc consts  --      1.4669                 5.6893                 5.7237
 IR Inten    --      7.9287                29.0715                 3.5566

                     22                     23                     24
                     ?L                     ?A                     ?E
 Frequencies --   3059.6952              3087.2006              3119.5317
 Red. masses --      1.0555                 1.1027                 1.1027
 Frc consts  --      5.8219                 6.1920                 6.3226
 IR Inten    --     39.9081                 2.2210                 0.0000

                     25                     26                     27
                     ?A                     ?L                     ?L
 Frequencies --   3129.8897              3132.0327              3133.9500
 Red. masses --      1.1034                 1.1022                 1.1012
 Frc consts  --      6.3685                 6.3703                 6.3722
 IR Inten    --     75.6017                24.5673                37.3814

 - Thermochemistry -
 -------------------
 Temperature  5000.000 Kelvin.  Pressure   0.98700 Atm.
 Atom     1 has atomic number  6 and mass  12.00000

 Molecular mass:    44.06260 amu.
 Principal axes and moments of inertia in atomic units:
                           1         2         3
     Eigenvalues --    61.48989 212.37868 240.41067
           X           -0.00000   0.00000   1.00000
           Y            1.00000   0.00000  -0.00000
           Z           -0.00000   1.00000  -0.00000
 This molecule is an asymmetric top.
 Rotational symmetry number  2.
 Rotational temperatures (Kelvin)      1.40859     0.40783     0.36027
 Rotational constants (GHZ):          29.35021     8.49775     7.50691
 Zero-point vibrational energy     272971.1 (Joules/Mol)
                                   65.24167 (Kcal/Mol)
 Warning -- explicit consideration of  27 degrees of freedom as
           vibrations may cause significant error
 Identified internal rotation modes:
   34   2
 Vibrational temperatures:    310.74   400.00   535.40  1083.40  1282.39
          (Kelvin)           1313.98  1344.32  1551.48  1698.92  1745.93
                             1895.99  1963.83  2027.35  2046.64  2149.97
                             2152.49  2159.76  2176.78  2182.76  4393.45
                             4395.27  4402.22  4441.79  4488.31  4503.21
                             4506.30  4509.06

 Zero-point correction=                           0.103969 (Hartree/Particle)
 Thermal correction to Energy=                    0.486158
 Thermal correction to Enthalpy=                  0.501993
 Thermal correction to Gibbs Free Energy=        -0.975368
 Sum of electronic and zero-point Energies=           -118.996677
 Sum of electronic and thermal Energies=              -118.614488
 Sum of electronic and thermal Enthalpies=            -118.598654
 Sum of electronic and thermal Free Energies=         -120.076015

                     E (Thermal)             CV                S
                      KCal/Mol        Cal/Mol-Kelvin    Cal/Mol-Kelvin
 Total                  305.069             58.247            185.412
 Corrected for
 internal rot.          297.999             56.310            183.364
 Electronic               0.000              0.000              0.000
 Translational           14.904              2.981             51.309
 Rotational              14.904              2.981             29.694
 Vibrational            275.261             52.285            104.409
 Vibration     1          9.939              1.987              7.508
 Vibration     2          9.941              1.986              7.007
 Vibration     3          9.946              1.985              6.428
 Vibration     4          9.975              1.979              5.030
 Vibration     5          9.990              1.976              4.697
 Vibration     6          9.993              1.976              4.649
 Vibration     7          9.996              1.975              4.603
 Vibration     8         10.016              1.971              4.321
 Vibration     9         10.031              1.968              4.142
 Vibration    10         10.037              1.967              4.088
 Vibration    11         10.055              1.964              3.926
 Vibration    12         10.063              1.962              3.857
 Vibration    13         10.072              1.960              3.795
 Vibration    14         10.074              1.960              3.776
 Vibration    15         10.089              1.957              3.680
 Vibration    16         10.089              1.957              3.677
 Vibration    17         10.090              1.957              3.671
 Vibration    18         10.092              1.956              3.655
 Vibration    19         10.093              1.956              3.650
 Vibration    20         10.567              1.864              2.307
 Vibration    21         10.568              1.864              2.306
 Vibration    22         10.570              1.864              2.303
 Vibration    23         10.581              1.862              2.287
 Vibration    24         10.594              1.859              2.267
 Vibration    25         10.599              1.858              2.261
 Vibration    26         10.600              1.858              2.260
 Vibration    27         10.600              1.858              2.259

 Normal termination of Gaussian 16 at Mon Jul 25 13:50:36 2022.
