 Gaussian 16, Revision C.01,

 ----------------------------------------------------------------------
 # opt freq=hinderedrotor B3LYP/6-31g(d,p) scf=fermi symm=veryloose pre
 ss=0.987 int=superfine
 ----------------------------------------------------------------------

 ---------
 [CH2]-T_1
 ---------
 Symbolic Z-matrix:
 Charge =  0 Multiplicity = 3

 SCF Done:  E(UB3LYP) =  -39.1435200410     A.U. after   11 cycles
 SCF Done:  E(UB3LYP) =  -39.1526126398     A.U. after   10 cycles
 SCF Done:  E(UB3LYP) =  -39.1534672203     A.U. after   10 cycles
 SCF Done:  E(UB3LYP) =  -39.1534847706     A.U. after    8 cycles
 Optimization completed.
    -- Stationary point found.

 1\1\GINC-LOCALHOST\FOpt\UB3LYP\6-31G(d,p)\C1H2(3)\ROOT\03-May-2022\0\\
 # opt freq=hinderedrotor B3LYP/6-31g(d,p) scf=fermi symm=veryloose pre
 ss=0.987 int=superfine\\[CH2]-T_1\\0,3\C,0.0832244493,-0.1038869327,0.
 \H,0.6482685615,-1.0263048775,0.\H,-0.9747820592,0.1213949838,0.\\Vers
 ion=ES64L-G16RevC.01\State=3-B1\HF=-39.1534848\S2=2.005144\S2-1=0.\S2A
 =2.000007\RMSD=5.890e-09\RMSF=2.202e-05\Dipole=-0.1422013,-0.2010978,0
 .\Quadrupole=0.5194494,0.1082095,-0.6276589,-0.5816263,0.,0.\PG=C02V [
 C2(C1),SGV(H2)]\\@

 Normal termination of Gaussian 16 at Tue May  3 08:41:16 2022.

 ----------------------------------------------------------------------
 #N Geom=AllCheck Guess=TCheck SCRF=Check GenChk UB3LYP/6-31G(d,p) Freq
 ----------------------------------------------------------------------

 Structure from the checkpoint file:  "[CH2]-T.chk"
 ---------
 [CH2]-T_1
 ---------
 Charge =  0 Multiplicity = 3

 SCF Done:  E(UB3LYP) =  -39.1534847706     A.U. after    1 cycles

 The electronic state is 3-B1.
 Alpha  occ. eigenvalues --  -10.22206  -0.67290  -0.44855  -0.27213  -0.23592
 Alpha virt. eigenvalues --    0.10870   0.18418   0.52222   0.52791   0.58571
 Alpha virt. eigenvalues --    0.59740   0.89256   0.89890   1.40136   1.56224
 Alpha virt. eigenvalues --    1.58708   1.79206   1.95010   2.29657   2.41714

  Beta  occ. eigenvalues --  -10.19393  -0.59645  -0.42735
  Beta virt. eigenvalues --   -0.06870  -0.03903   0.13181   0.20357   0.58534
  Beta virt. eigenvalues --    0.60626   0.61644   0.64725   0.92347   0.93395
  Beta virt. eigenvalues --    1.45391   1.67142   1.71354   1.81751   2.01974

 Mulliken charges and spin densities:
               1          2
     1  C   -0.262176   2.092357
     2  H    0.131088  -0.046178
     3  H    0.131088  -0.046178
 Sum of Mulliken charges =   0.00000   2.00000

 Dipole moment (field-independent basis, Debye):
    X=              0.0000    Y=              0.0000    Z=             -0.6260  Tot=              0.6260
 Quadrupole moment (field-independent basis, Debye-Ang):
   XX=             -7.8204   YY=             -5.7243   ZZ=             -7.3839
   XY=              0.0000   XZ=             -0.0000   YZ=             -0.0000

  Exact polarizability:       5.072       0.000      12.198      -0.000      -0.000       6.611
 Approx polarizability:       5.781       0.000      13.979      -0.000       0.000       7.533

 Optimization completed.
    -- Stationary point found.

 1\1\GINC-LOCALHOST\Freq\UB3LYP\6-31G(d,p)\C1H2(3)\ROOT\03-May-2022\0\\
 #N Geom=AllCheck Guess=TCheck SCRF=Check GenChk UB3LYP/6-31G(d,p) Freq
 \\[CH2]-T_1\\0,3\C,0.0832244493,-0.1038869327,0.\H,0.6482685615,-1.026
 3048775,0.\H,-0.9747820592,0.1213949838,0.\\Version=ES64L-G16RevC.01\S
 tate=3-B1\HF=-39.1534848\S2=2.005144\S2-1=0.\S2A=2.000007\RMSD=3.333e-
 10\RMSF=2.202e-05\ZeroPoint=0.0173612\Thermal=0.0202189\ETot=-39.13326
 59\HTot=-39.1323217\GTot=-39.1545187\Dipole=-0.1422013,-0.2010978,0.\D
 ipoleDeriv=-0.0476584,-0.0595818,0.,-0.0595818,-0.0897858,0.,0.,0.,-0.

 Normal termination of Gaussian 16 at Tue May  3 08:41:19 2022.

 ----------------------------------------------------------------------
 # freq=(readfc,hinderedrotor) temp=200 press=0.987 geom=allcheck guess
 =read
 ----------------------------------------------------------------------

 Structure from the checkpoint file:  "[CH2]-T.chk"
 ---------
 [CH2]-T_1
 ---------
 Charge =  0 Multiplicity = 3

 Normal termination of Gaussian 16 at Tue May  3 08:41:19 2022.

 ----------------------------------------------------------------------
 # freq=(readfc,hinderedrotor) temp=250 press=0.987 geom=allcheck guess
 =read
 ----------------------------------------------------------------------

 Structure from the checkpoint file:  "[CH2]-T.chk"
 ---------
 [CH2]-T_1
 ---------
 Charge =  0 Multiplicity = 3

 Normal termination of Gaussian 16 at Tue May  3 08:41:20 2022.

 Structure from the checkpoint file:  "[CH2]-T.chk"
 ---------
 [CH2]-T_1
 ---------
 Charge =  0 Multiplicity = 3

 Structure from the checkpoint file:  "[CH2]-T.chk"
 ---------
 [CH2]-T_1
 ---------
 Charge =  0 Multiplicity = 3

 Normal termination of Gaussian 16 at Tue May  3 08:41:42 2022.
 Normal termination of Gaussian 16 at Tue May  3 08:41:42 2022.
 Normal termination of Gaussian 16 at Tue May  3 08:41:42 2022.
 Gaussian 16:  ES64L-G16RevC.01  3-Jul-2019

                         Standard orientation:
 ---------------------------------------------------------------------
 Center     Atomic      Atomic             Coordinates (Angstroms)
 Number     Number       Type             X           Y           Z
 ---------------------------------------------------------------------
      1          6           0        0.000000   -0.000000    0.106728
      2          1           0        0.000000   -0.993920   -0.320183
      3          1           0        0.000000    0.993920   -0.320183
 ---------------------------------------------------------------------

                      1                      2                      3
                     ?A                     A1                     ?B
 Frequencies --   1098.2729              3144.2471              3378.1797
 Red. masses --      1.1355                 1.0276                 1.1372
 Frc consts  --      0.8070                 5.9859                 7.6463
 IR Inten    --      8.2487                 1.5859                 0.8526

 - Thermochemistry -
 -------------------
 Temperature  3000.000 Kelvin.  Pressure   0.98700 Atm.
 Atom     1 has atomic number  6 and mass  12.00000

 Molecular mass:    14.01565 amu.
 Principal axes and moments of inertia in atomic units:
                           1         2         3
     Eigenvalues --     1.12319   7.11076   8.23395
           X            0.00000  -0.00000   1.00000
           Y            1.00000   0.00000  -0.00000
           Z           -0.00000   1.00000   0.00000
 This molecule is an asymmetric top.
 Rotational symmetry number  2.
 Rotational temperatures (Kelvin)     77.11396    12.18069    10.51912
 Rotational constants (GHZ):        1606.79410   253.80440   219.18292
 Zero-point vibrational energy      45581.9 (Joules/Mol)
                                   10.89434 (Kcal/Mol)
 Warning -- explicit consideration of   3 degrees of freedom as
           vibrations may cause significant error
 Vibrational temperatures:   1580.17  4523.87  4860.45
          (Kelvin)

 Zero-point correction=                           0.017361 (Hartree/Particle)
 Thermal correction to Energy=                    0.060949
 Thermal correction to Enthalpy=                  0.070450
 Thermal correction to Gibbs Free Energy=        -0.268376
 Sum of electronic and zero-point Energies=            -39.136124
 Sum of electronic and thermal Energies=               -39.092535
 Sum of electronic and thermal Enthalpies=             -39.083035
 Sum of electronic and thermal Free Energies=          -39.421861

                     E (Thermal)             CV                S
                      KCal/Mol        Cal/Mol-Kelvin    Cal/Mol-Kelvin
 Total                   38.246             11.158             70.872
 Electronic               0.000              0.000              2.183
 Translational            8.942              2.981             45.357
 Rotational               8.942              2.981             17.467
 Vibrational             20.361              5.196              5.865
 Vibration     1          6.099              1.942              3.284
 Vibration     2          7.051              1.650              1.349
 Vibration     3          7.212              1.604              1.232

 Normal termination of Gaussian 16 at Tue May  3 08:41:43 2022.
