 Gaussian 16, Revision C.01,

 ----------------------------------------------------------------------
 # opt freq=hinderedrotor B3LYP/6-31g(d,p) scf=fermi symm=veryloose pre
 ss=0.987
 ----------------------------------------------------------------------

 --------
 [H][H]_2
 --------
 Symbolic Z-matrix:
 Charge =  0 Multiplicity = 1

 SCF Done:  E(RB3LYP) =  -1.17773986331     A.U. after    6 cycles
 SCF Done:  E(RB3LYP) =  -1.17853915121     A.U. after    5 cycles
 SCF Done:  E(RB3LYP) =  -1.17853935735     A.U. after    4 cycles
 Optimization completed.
    -- Stationary point found.
 Normal termination of Gaussian 16 at Tue May  3 12:00:36 2022.

 ----------------------------------------------------------------------
 #N Geom=AllCheck Guess=TCheck SCRF=Check GenChk RB3LYP/6-31G(d,p) Freq
 ----------------------------------------------------------------------

 Structure from the checkpoint file:  "[H][H].chk"
 --------
 [H][H]_2
 --------
 Charge =  0 Multiplicity = 1

 SCF Done:  E(RB3LYP) =  -1.17853935735     A.U. after    1 cycles

 The electronic state is 1-SGG.
 Alpha  occ. eigenvalues --   -0.43158
 Alpha virt. eigenvalues --    0.10097   0.57700   1.03609   1.67471   1.67471
 Alpha virt. eigenvalues --    2.37888   2.61567   2.61567   4.15287

 Mulliken charges:
               1
     1  H   -0.000000
     2  H   -0.000000
 Sum of Mulliken charges =  -0.00000

 Dipole moment (field-independent basis, Debye):
    X=             -0.0000    Y=              0.0000    Z=              0.0000  Tot=              0.0000
 Quadrupole moment (field-independent basis, Debye-Ang):
   XX=             -2.0291   YY=             -2.0291   ZZ=             -1.5076
   XY=             -0.0000   XZ=             -0.0000   YZ=              0.0000

  Exact polarizability:       0.582      -0.000       0.582      -0.000       0.000       6.365
 Approx polarizability:       0.599      -0.000       0.599      -0.000      -0.000       7.764

 Optimization completed.
    -- Stationary point found.
 Normal termination of Gaussian 16 at Tue May  3 12:00:37 2022.

 ----------------------------------------------------------------------
 # freq=(readfc,hinderedrotor) temp=200 press=0.987 geom=allcheck guess
 =read
 ----------------------------------------------------------------------

 Structure from the checkpoint file:  "[H][H].chk"
 --------
 [H][H]_2
 --------
 Charge =  0 Multiplicity = 1

 Normal termination of Gaussian 16 at Tue May  3 12:00:38 2022.

 ----------------------------------------------------------------------
 # freq=(readfc,hinderedrotor) temp=250 press=0.987 geom=allcheck guess
 =read
 ----------------------------------------------------------------------

 Structure from the checkpoint file:  "[H][H].chk"
 --------
 [H][H]_2
 --------
 Charge =  0 Multiplicity = 1

 Normal termination of Gaussian 16 at Tue May  3 12:00:38 2022.

 ----------------------------------------------------------------------
 # freq=(readfc,hinderedrotor) temp=300 press=0.987 geom=allcheck guess
 =read
 ----------------------------------------------------------------------

 Structure from the checkpoint file:  "[H][H].chk"
 --------
 [H][H]_2
 --------
 Charge =  0 Multiplicity = 1

 ----------------------------------------------------------------------
 # freq=(readfc,hinderedrotor) temp=350 press=0.987 geom=allcheck guess
 =read
 ----------------------------------------------------------------------

 Structure from the checkpoint file:  "[H][H].chk"
 --------
 [H][H]_2
 --------
 Charge =  0 Multiplicity = 1

 Normal termination of Gaussian 16 at Tue May  3 12:01:14 2022.
 Normal termination of Gaussian 16 at Tue May  3 12:01:14 2022.
 Normal termination of Gaussian 16 at Tue May  3 12:01:15 2022.
 Gaussian 16:  ES64L-G16RevC.01  3-Jul-2019

                         Standard orientation:
 ---------------------------------------------------------------------
 Center     Atomic      Atomic             Coordinates (Angstroms)
 Number     Number       Type             X           Y           Z
 ---------------------------------------------------------------------
      1          1           0        0.000000    0.000000    0.371396
      2          1           0        0.000000    0.000000   -0.371396
 ---------------------------------------------------------------------

                      1
                     SGG
 Frequencies --   4465.6918
 Red. masses --      1.0078
 Frc consts  --     11.8417
 IR Inten    --      0.0000

 - Thermochemistry -
 -------------------
 Temperature  3000.000 Kelvin.  Pressure   0.98700 Atm.
 Atom     1 has atomic number  1 and mass   1.00783

 Molecular mass:     2.01565 amu.
 Principal axes and moments of inertia in atomic units:
                           1         2         3
     Eigenvalues --     0.00000   0.99286   0.99286
           X           -0.00000   1.00000  -0.00000
           Y            0.00000   0.00000   1.00000
           Z            1.00000   0.00000  -0.00000
 This molecule is a prolate symmetric top.
 Rotational symmetry number  2.
 Rotational temperature (Kelvin)     87.23684
 Rotational constant (GHZ):        1817.720781
 Zero-point vibrational energy      26710.8 (Joules/Mol)
                                    6.38403 (Kcal/Mol)
 Warning -- explicit consideration of   1 degrees of freedom as
           vibrations may cause significant error
 Vibrational temperatures:   6425.13
          (Kelvin)

 Zero-point correction=                           0.010174 (Hartree/Particle)
 Thermal correction to Energy=                    0.036633
 Thermal correction to Enthalpy=                  0.046133
 Thermal correction to Gibbs Free Energy=        -0.183494
 Sum of electronic and zero-point Energies=             -1.168366
 Sum of electronic and thermal Energies=                -1.141907
 Sum of electronic and thermal Enthalpies=              -1.132406
 Sum of electronic and thermal Free Energies=           -1.362033

                     E (Thermal)             CV                S
                      KCal/Mol        Cal/Mol-Kelvin    Cal/Mol-Kelvin
 Total                   22.987              6.343             48.031
 Electronic               0.000              0.000              0.000
 Translational            8.942              2.981             39.576
 Rotational               5.962              1.987              7.640
 Vibrational              8.083              1.375              0.815
 Vibration     1          8.083              1.375              0.815

 Normal termination of Gaussian 16 at Tue May  3 12:01:15 2022.
