 Gaussian 16, Revision C.01,

 ----------------------------------------------------------------------
 # opt freq=hinderedrotor B3LYP/6-31g(d,p) scf=fermi symm=veryloose pre
 ss=0.987
 ----------------------------------------------------------------------

 ----------
 C=C(C)CC_1
 ----------
 Symbolic Z-matrix:
 Charge =  0 Multiplicity = 1

 SCF Done:  E(RB3LYP) =  -196.543652080     A.U. after   13 cycles
 SCF Done:  E(RB3LYP) =  -196.552019592     A.U. after   11 cycles
 SCF Done:  E(RB3LYP) =  -196.553846371     A.U. after   10 cycles
 SCF Done:  E(RB3LYP) =  -196.554131622     A.U. after    9 cycles
 SCF Done:  E(RB3LYP) =  -196.554147760     A.U. after    8 cycles
 Optimization completed.
    -- Stationary point found.
 Normal termination of Gaussian 16 at Sat Apr 30 16:01:28 2022.

 ----------------------------------------------------------------------
 #N Geom=AllCheck Guess=TCheck SCRF=Check GenChk RB3LYP/6-31G(d,p) Freq
 ----------------------------------------------------------------------

 Structure from the checkpoint file:  "C=C(C)CC.chk"
 ----------
 C=C(C)CC_1
 ----------
 Charge =  0 Multiplicity = 1

 SCF Done:  E(RB3LYP) =  -196.554147760     A.U. after    1 cycles

 The electronic state is 1-A'.
 Alpha  occ. eigenvalues --  -10.18930 -10.18454 -10.17713 -10.17339 -10.16427
 Alpha  occ. eigenvalues --   -0.80723  -0.73253  -0.67616  -0.62603  -0.51212
 Alpha  occ. eigenvalues --   -0.45842  -0.44738  -0.42540  -0.40166  -0.38912
 Alpha  occ. eigenvalues --   -0.36320  -0.34369  -0.34207  -0.32387  -0.23921
 Alpha virt. eigenvalues --    0.03198   0.09548   0.12439   0.14128   0.15211
 Alpha virt. eigenvalues --    0.15811   0.17020   0.18805   0.19108   0.19671
 Alpha virt. eigenvalues --    0.20880   0.24697   0.25275   0.31410   0.37650

 Mulliken charges:
               1
     1  C   -0.284837
     2  C    0.165179
     3  C   -0.363815
     4  C   -0.216373
     5  C   -0.326015
     6  H    0.088174
     7  H    0.082227
     8  H    0.107663
     9  H    0.110838
    10  H    0.110838
    11  H    0.102706
    12  H    0.102706
    13  H    0.099135
    14  H    0.110786
    15  H    0.110786
 Sum of Mulliken charges =   0.00000

 Dipole moment (field-independent basis, Debye):
    X=             -0.5210    Y=             -0.1590    Z=             -0.0000  Tot=              0.5447
 Quadrupole moment (field-independent basis, Debye-Ang):
   XX=            -32.4444   YY=            -32.2210   ZZ=            -34.0861
   XY=             -0.1494   XZ=             -0.0000   YZ=              0.0000

  Exact polarizability:      63.612       1.307      58.347      -0.000       0.000      38.451
 Approx polarizability:      96.664       5.962      70.378      -0.000      -0.000      55.239

 Optimization completed.
    -- Stationary point found.
 Normal termination of Gaussian 16 at Sat Apr 30 16:01:59 2022.

 ----------------------------------------------------------------------
 # freq=(readfc,hinderedrotor) temp=200 press=0.987 geom=allcheck guess
 =read
 ----------------------------------------------------------------------

 Structure from the checkpoint file:  "C=C(C)CC.chk"
 ----------
 C=C(C)CC_1
 ----------
 Charge =  0 Multiplicity = 1

 Normal termination of Gaussian 16 at Sat Apr 30 16:01:59 2022.

 ----------------------------------------------------------------------
 # freq=(readfc,hinderedrotor) temp=250 press=0.987 geom=allcheck guess
 =read
 ----------------------------------------------------------------------

 Structure from the checkpoint file:  "C=C(C)CC.chk"
 ----------
 C=C(C)CC_1
 ----------
 Charge =  0 Multiplicity = 1

 Normal termination of Gaussian 16 at Sat Apr 30 16:02:00 2022.

 ----------------------------------------------------------------------
 # freq=(readfc,hinderedrotor) temp=300 press=0.987 geom=allcheck guess
 =read
 ----------------------------------------------------------------------

 Structure from the checkpoint file:  "C=C(C)CC.chk"
 ----------
 C=C(C)CC_1
 ----------
 Charge =  0 Multiplicity = 1

 ----------------------------------------------------------------------
 # freq=(readfc,hinderedrotor) temp=350 press=0.987 geom=allcheck guess
 =read
 ----------------------------------------------------------------------

 Structure from the checkpoint file:  "C=C(C)CC.chk"
 ----------
 C=C(C)CC_1
 ----------
 Charge =  0 Multiplicity = 1

 Normal termination of Gaussian 16 at Sat Apr 30 16:02:20 2022.
 Normal termination of Gaussian 16 at Sat Apr 30 16:02:20 2022.
 Normal termination of Gaussian 16 at Sat Apr 30 16:02:21 2022.
 Gaussian 16:  ES64L-G16RevC.01  3-Jul-2019

                         Standard orientation:
 ---------------------------------------------------------------------
 Center     Atomic      Atomic             Coordinates (Angstroms)
 Number     Number       Type             X           Y           Z
 ---------------------------------------------------------------------
      1          6           0        1.312213    0.808038    0.000000
      2          6           0        0.000000    0.553940    0.000000
      3          6           0       -1.019902    1.667303    0.000000
      4          6           0       -0.586816   -0.843076    0.000000
      5          6           0        0.407294   -2.005531    0.000000
      6          1           0        2.057703    0.020119    0.000000
      7          1           0        1.686937    1.827642    0.000000
      8          1           0       -0.546195    2.652398    0.000000
      9          1           0       -1.674232    1.603363   -0.879204
     10          1           0       -1.674232    1.603363    0.879204
     11          1           0       -1.253652   -0.933643    0.870634
     12          1           0       -1.253652   -0.933643   -0.870634
     13          1           0       -0.122212   -2.963130    0.000000
     14          1           0        1.051400   -1.980261   -0.884747
     15          1           0        1.051400   -1.980261    0.884747
 ---------------------------------------------------------------------

                      1                      2                      3
                     ?A                     A"                     ?B
 Frequencies --     95.0545               184.2587               266.6461
 Red. masses --      1.9194                 1.0465                 1.0819
 Frc consts  --      0.0102                 0.0209                 0.0453
 IR Inten    --      0.0025                 0.2494                 0.0181

                      4                      5                      6
                     ?C                     ?D                     ?E
 Frequencies --    275.5462               398.5302               438.1953
 Red. masses --      2.5984                 2.4514                 2.0530
 Frc consts  --      0.1162                 0.2294                 0.2323
 IR Inten    --      0.2322                 0.6177                 5.5198

                      7                      8                      9
                     ?F                     A"                     ?G
 Frequencies --    494.8353               688.5615               784.2165
 Red. masses --      2.3763                 1.0377                 2.7117
 Frc consts  --      0.3428                 0.2899                 0.9826
 IR Inten    --      0.3084                 0.0354                 0.7644

                     10                     11                     12
                     ?H                     ?I                     ?J
 Frequencies --    812.3047               919.6668               954.3779
 Red. masses --      1.1479                 1.3364                 2.0461
 Frc consts  --      0.4463                 0.6660                 1.0980
 IR Inten    --      1.0047                38.7479                 0.0361

                     13                     14                     15
                     ?K                     ?L                     ?I
 Frequencies --   1010.7419              1029.1221              1050.9208
 Red. masses --      1.3407                 1.7236                 1.2932
 Frc consts  --      0.8070                 1.0755                 0.8415
 IR Inten    --      1.7567                 1.0188                 0.7814

                     16                     17                     18
                     ?M                     ?N                     ?J
 Frequencies --   1105.8562              1130.0385              1261.3308
 Red. masses --      1.9196                 1.7029                 2.0351
 Frc consts  --      1.3831                 1.2813                 1.9076
 IR Inten    --      0.4237                 0.0831                10.0873

                     19                     20                     21
                     ?H                     ?L                     ?K
 Frequencies --   1301.9925              1396.0737              1419.4762
 Red. masses --      1.1499                 1.7264                 1.2962
 Frc consts  --      1.1485                 1.9825                 1.5387
 IR Inten    --      0.2378                 0.9747                 0.1685

                     22                     23                     24
                     ?N                     ?N                     ?N
 Frequencies --   1426.6302              1460.1706              1487.1112
 Red. masses --      1.2575                 1.1971                 1.0741
 Frc consts  --      1.5080                 1.5038                 1.3995
 IR Inten    --      4.6653                 0.3186                 0.8069

                     25                     26                     27
                     A"                     ?N                     A"
 Frequencies --   1494.1658              1509.0796              1512.4311
 Red. masses --      1.0448                 1.0593                 1.0396
 Frc consts  --      1.3743                 1.4213                 1.4012
 IR Inten    --      7.3558                12.4603                 5.2498

                     28                     29                     30
                     ?N                     ?N                     ?N
 Frequencies --   1525.1352              1734.9267              3005.7787
 Red. masses --      1.0565                 4.9370                 1.0598
 Frc consts  --      1.4479                 8.7554                 5.6415
 IR Inten    --      1.4723                14.5029                25.6797

                     31                     32                     33
                     A'                     ?B                     A'
 Frequencies --   3025.0263              3027.5082              3047.3165
 Red. masses --      1.0392                 1.1003                 1.0354
 Frc consts  --      5.6030                 5.9422                 5.6649
 IR Inten    --     40.7825                20.1575                22.1280

                     34                     35                     36
                     ?B                     ?N                     ?B
 Frequencies --   3072.9041              3118.5006              3118.6693
 Red. masses --      1.0996                 1.1024                 1.1027
 Frc consts  --      6.1177                 6.3163                 6.3191
 IR Inten    --     28.8008                28.0982                33.9702

                     37                     38                     39
                     ?N                     ?N                     ?N
 Frequencies --   3125.0745              3159.4840              3241.8466
 Red. masses --      1.0999                 1.0612                 1.1145
 Frc consts  --      6.3287                 6.2412                 6.9011
 IR Inten    --     26.8682                 8.7795                17.6881

 - Thermochemistry -
 -------------------
 Temperature  3000.000 Kelvin.  Pressure   0.98700 Atm.
 Atom     1 has atomic number  6 and mass  12.00000

 Molecular mass:    70.07825 amu.
 Principal axes and moments of inertia in atomic units:
                           1         2         3
     Eigenvalues --   210.61687 513.91652 691.22413
           X           -0.20136   0.97952   0.00000
           Y            0.97952   0.20136   0.00000
           Z           -0.00000   0.00000   1.00000
 This molecule is an asymmetric top.
 Rotational symmetry number  1.
 Rotational temperatures (Kelvin)      0.41124     0.16854     0.12531
 Rotational constants (GHZ):           8.56883     3.51174     2.61093
 Zero-point vibrational energy     359534.7 (Joules/Mol)
                                   85.93085 (Kcal/Mol)
 Warning -- explicit consideration of  39 degrees of freedom as
           vibrations may cause significant error
 Identified internal rotation modes:
   46   2   3
 Vibrational temperatures:    136.76   265.11   383.64   396.45   573.40
          (Kelvin)            630.47   711.96   990.69  1128.31  1168.73
                             1323.20  1373.14  1454.23  1480.68  1512.04
                             1591.08  1625.87  1814.77  1873.28  2008.64
                             2042.31  2052.60  2100.86  2139.62  2149.77
                             2171.23  2176.05  2194.33  2496.17  4324.65
                             4352.34  4355.91  4384.41  4421.22  4486.83
                             4487.07  4496.29  4545.79  4664.29

 Zero-point correction=                           0.136940 (Hartree/Particle)
 Thermal correction to Energy=                    0.422314
 Thermal correction to Enthalpy=                  0.431814
 Thermal correction to Gibbs Free Energy=        -0.561018
 Sum of electronic and zero-point Energies=           -196.417208
 Sum of electronic and thermal Energies=              -196.131834
 Sum of electronic and thermal Enthalpies=            -196.122333
 Sum of electronic and thermal Free Energies=         -197.115166

                     E (Thermal)             CV                S
                      KCal/Mol        Cal/Mol-Kelvin    Cal/Mol-Kelvin
 Total                  265.006             78.851            207.671
 Corrected for
 internal rot.          259.631             76.036            205.561
 Electronic               0.000              0.000              0.000
 Translational            8.942              2.981             50.154
 Rotational               8.942              2.981             32.699
 Vibrational            247.121             72.889            124.817
 Vibration     1          5.963              1.987              8.124
 Vibration     2          5.965              1.986              6.809
 Vibration     3          5.970              1.984              6.076
 Vibration     4          5.970              1.984              6.010
 Vibration     5          5.980              1.981              5.279
 Vibration     6          5.984              1.980              5.091
 Vibration     7          5.990              1.978              4.850
 Vibration     8          6.016              1.969              4.198
 Vibration     9          6.032              1.964              3.942
 Vibration    10          6.037              1.962              3.873
 Vibration    11          6.058              1.955              3.630
 Vibration    12          6.065              1.953              3.557
 Vibration    13          6.078              1.949              3.446
 Vibration    14          6.082              1.947              3.410
 Vibration    15          6.087              1.946              3.370
 Vibration    16          6.101              1.941              3.271
 Vibration    17          6.107              1.939              3.229
 Vibration    18          6.142              1.928              3.016
 Vibration    19          6.154              1.924              2.955
 Vibration    20          6.183              1.915              2.821
 Vibration    21          6.190              1.912              2.789
 Vibration    22          6.192              1.911              2.780
 Vibration    23          6.203              1.908              2.735
 Vibration    24          6.212              1.905              2.700
 Vibration    25          6.215              1.904              2.691
 Vibration    26          6.220              1.903              2.673
 Vibration    27          6.221              1.902              2.668
 Vibration    28          6.225              1.901              2.652
 Vibration    29          6.302              1.876              2.409
 Vibration    30          6.960              1.676              1.424
 Vibration    31          6.972              1.672              1.413
 Vibration    32          6.974              1.672              1.412
 Vibration    33          6.987              1.668              1.401
 Vibration    34          7.003              1.663              1.387
 Vibration    35          7.034              1.655              1.363
 Vibration    36          7.034              1.655              1.363
 Vibration    37          7.038              1.654              1.359
 Vibration    38          7.061              1.647              1.341
 Vibration    39          7.117              1.631              1.299

 Normal termination of Gaussian 16 at Sat Apr 30 16:02:21 2022.
