 Gaussian 16, Revision C.01,

 ----------------------------------------------------------------------
 # opt freq=hinderedrotor B3LYP/6-31g(d,p) scf=fermi symm=veryloose pre
 ss=0.987
 ----------------------------------------------------------------------

 ---------
 C=C(C)C_1
 ---------
 Symbolic Z-matrix:
 Charge =  0 Multiplicity = 1

 SCF Done:  E(RB3LYP) =  -157.229864016     A.U. after   12 cycles
 SCF Done:  E(RB3LYP) =  -157.232189050     A.U. after   11 cycles
 SCF Done:  E(RB3LYP) =  -157.233011476     A.U. after   10 cycles
 SCF Done:  E(RB3LYP) =  -157.236313522     A.U. after   12 cycles
 SCF Done:  E(RB3LYP) =  -157.238372006     A.U. after   12 cycles
 SCF Done:  E(RB3LYP) =  -157.238707239     A.U. after   10 cycles
 SCF Done:  E(RB3LYP) =  -157.238818083     A.U. after   10 cycles
 SCF Done:  E(RB3LYP) =  -157.238832887     A.U. after    9 cycles
 SCF Done:  E(RB3LYP) =  -157.238837561     A.U. after    7 cycles
 SCF Done:  E(RB3LYP) =  -157.238840305     A.U. after    8 cycles
 SCF Done:  E(RB3LYP) =  -157.238840376     A.U. after    6 cycles
 Optimization completed.
    -- Stationary point found.
 Normal termination of Gaussian 16 at Tue May  3 12:08:54 2022.

 ----------------------------------------------------------------------
 #N Geom=AllCheck Guess=TCheck SCRF=Check GenChk RB3LYP/6-31G(d,p) Freq
 ----------------------------------------------------------------------

 Structure from the checkpoint file:  "C=C(C)C.chk"
 ---------
 C=C(C)C_1
 ---------
 Charge =  0 Multiplicity = 1

 SCF Done:  E(RB3LYP) =  -157.238840357     A.U. after    6 cycles

 The electronic state is 1-A1.
 Alpha  occ. eigenvalues --  -10.19183 -10.17825 -10.17824 -10.16581  -0.80004
 Alpha  occ. eigenvalues --   -0.68916  -0.67434  -0.51960  -0.44718  -0.43871
 Alpha  occ. eigenvalues --   -0.42681  -0.38239  -0.36697  -0.36045  -0.33438
 Alpha  occ. eigenvalues --   -0.23957
 Alpha virt. eigenvalues --    0.03063   0.09680   0.13946   0.15151   0.15664
 Alpha virt. eigenvalues --    0.17493   0.17641   0.18693   0.22014   0.22763
 Alpha virt. eigenvalues --    0.31198   0.37821   0.50861   0.52414   0.52536

 Mulliken charges:
               1
     1  C   -0.279141
     2  C    0.166797
     3  C   -0.360729
     4  C   -0.360729
     5  H    0.085034
     6  H    0.085034
     7  H    0.111513
     8  H    0.111513
     9  H    0.108841
    10  H    0.111513
    11  H    0.108841
    12  H    0.111513
 Sum of Mulliken charges =  -0.00000

 Dipole moment (field-independent basis, Debye):
    X=             -0.0000    Y=             -0.0000    Z=             -0.5261  Tot=              0.5261
 Quadrupole moment (field-independent basis, Debye-Ang):
   XX=            -27.6398   YY=            -25.4266   ZZ=            -25.8858
   XY=             -0.0000   XZ=              0.0000   YZ=              0.0000

  Exact polarizability:      29.133      -0.000      44.044       0.000       0.000      56.017
 Approx polarizability:      40.668      -0.000      54.617       0.000       0.000      83.595

 Optimization completed.
    -- Stationary point found.
 Normal termination of Gaussian 16 at Tue May  3 12:09:09 2022.

 ----------------------------------------------------------------------
 # freq=(readfc,hinderedrotor) temp=200 press=0.987 geom=allcheck guess
 =read
 ----------------------------------------------------------------------

 Structure from the checkpoint file:  "C=C(C)C.chk"
 ---------
 C=C(C)C_1
 ---------
 Charge =  0 Multiplicity = 1

 Normal termination of Gaussian 16 at Tue May  3 12:09:10 2022.

 ----------------------------------------------------------------------
 # freq=(readfc,hinderedrotor) temp=250 press=0.987 geom=allcheck guess
 =read
 ----------------------------------------------------------------------

 Structure from the checkpoint file:  "C=C(C)C.chk"
 ---------
 C=C(C)C_1
 ---------
 Charge =  0 Multiplicity = 1

 Normal termination of Gaussian 16 at Tue May  3 12:09:10 2022.

 ----------------------------------------------------------------------
 # freq=(readfc,hinderedrotor) temp=300 press=0.987 geom=allcheck guess
 =read
 ----------------------------------------------------------------------

 Structure from the checkpoint file:  "C=C(C)C.chk"
 ---------
 C=C(C)C_1
 ---------
 Charge =  0 Multiplicity = 1

 ----------------------------------------------------------------------
 # freq=(readfc,hinderedrotor) temp=350 press=0.987 geom=allcheck guess
 =read
 ----------------------------------------------------------------------

 Structure from the checkpoint file:  "C=C(C)C.chk"
 ---------
 C=C(C)C_1
 ---------
 Charge =  0 Multiplicity = 1

 Normal termination of Gaussian 16 at Tue May  3 12:09:35 2022.
 Normal termination of Gaussian 16 at Tue May  3 12:09:35 2022.
 Normal termination of Gaussian 16 at Tue May  3 12:09:36 2022.
 Gaussian 16:  ES64L-G16RevC.01  3-Jul-2019

                         Standard orientation:
 ---------------------------------------------------------------------
 Center     Atomic      Atomic             Coordinates (Angstroms)
 Number     Number       Type             X           Y           Z
 ---------------------------------------------------------------------
      1          6           0        0.000000    0.000000    1.459459
      2          6           0        0.000000    0.000000    0.123062
      3          6           0       -0.000000    1.277443   -0.678736
      4          6           0       -0.000000   -1.277443   -0.678736
      5          1           0        0.000000   -0.924830    2.029791
      6          1           0        0.000000    0.924830    2.029791
      7          1           0        0.879047    1.330576   -1.334277
      8          1           0       -0.879047    1.330576   -1.334277
      9          1           0       -0.000000    2.161883   -0.036383
     10          1           0        0.879047   -1.330576   -1.334277
     11          1           0       -0.000000   -2.161883   -0.036383
     12          1           0       -0.879047   -1.330576   -1.334277
 ---------------------------------------------------------------------

                      1                      2                      3
                     A2                     ?A                     ?B
 Frequencies --    176.8734               212.3778               379.1819
 Red. masses --      1.0239                 1.0765                 2.1623
 Frc consts  --      0.0189                 0.0286                 0.1832
 IR Inten    --      0.0000                 0.5937                 0.2925

                      4                      5                      6
                     ?C                     ?D                     A2
 Frequencies --    437.8557               438.0317               708.3481
 Red. masses --      2.1543                 2.0790                 1.0095
 Frc consts  --      0.2433                 0.2350                 0.2984
 IR Inten    --      5.1215                 1.5171                 0.0000

                      7                      8                      9
                     ?E                     ?F                     ?G
 Frequencies --    818.4668               920.7743               966.8518
 Red. masses --      3.4311                 1.3329                 1.4505
 Frc consts  --      1.3542                 0.6658                 0.7989
 IR Inten    --      0.0991                39.8606                 0.0693

                     10                     11                     12
                     ?G                     ?H                     ?I
 Frequencies --    990.0829              1026.8873              1090.7159
 Red. masses --      1.4469                 1.2367                 1.4565
 Frc consts  --      0.8356                 0.7683                 1.0209
 IR Inten    --      0.2492                 0.0000                 4.0885

                     13                     14                     15
                     ?J                     ?K                     ?L
 Frequencies --   1111.5616              1303.1917              1423.8817
 Red. masses --      1.6808                 2.5798                 1.3778
 Frc consts  --      1.2235                 2.5814                 1.6459
 IR Inten    --      0.7406                 4.3733                 5.5371

                     16                     17                     18
                     ?L                     ?L                     A2
 Frequencies --   1425.9350              1456.9900              1484.7601
 Red. masses --      1.1882                 1.2056                 1.0471
 Frc consts  --      1.4234                 1.5078                 1.3601
 IR Inten    --      0.0073                 0.5141                 0.0000

                     19                     20                     21
                     B2                     B1                     ?L
 Frequencies --   1498.3012              1502.3642              1516.7165
 Red. masses --      1.0439                 1.0424                 1.0681
 Frc consts  --      1.3808                 1.3862                 1.4477
 IR Inten    --      3.7992                13.9594                 8.9534

                     22                     23                     24
                     ?L                     B2                     A1
 Frequencies --   1739.5713              3021.5765              3027.5214
 Red. masses --      4.9422                 1.0382                 1.0387
 Frc consts  --      8.8116                 5.5849                 5.6093
 IR Inten    --     14.2668                19.4085                40.3789

                     25                     26                     27
                     ?L                     ?A                     ?L
 Frequencies --   3071.0867              3074.3711              3124.6793
 Red. masses --      1.0999                 1.0993                 1.1000
 Frc consts  --      6.1118                 6.1219                 6.3279
 IR Inten    --      0.0000                53.3890                24.6583

                     28                     29                     30
                     ?L                     ?L                     ?L
 Frequencies --   3126.3418              3148.8171              3230.9571
 Red. masses --      1.0999                 1.0606                 1.1159
 Frc consts  --      6.3340                 6.1960                 6.8633
 IR Inten    --     21.1986                 9.0460                21.1638

 - Thermochemistry -
 -------------------
 Temperature  3000.000 Kelvin.  Pressure   0.98700 Atm.
 Atom     1 has atomic number  6 and mass  12.00000

 Molecular mass:    56.06260 amu.
 Principal axes and moments of inertia in atomic units:
                           1         2         3
     Eigenvalues --   197.71403 216.26915 391.73488
           X            0.00000   0.00000   1.00000
           Y            1.00000   0.00000   0.00000
           Z           -0.00000   1.00000  -0.00000
 This molecule is an asymmetric top.
 Rotational symmetry number  2.
 Rotational temperatures (Kelvin)      0.43808     0.40049     0.22110
 Rotational constants (GHZ):           9.12804     8.34489     4.60705
 Zero-point vibrational energy     283844.4 (Joules/Mol)
                                   67.84043 (Kcal/Mol)
 Warning -- explicit consideration of  30 degrees of freedom as
           vibrations may cause significant error
 Identified internal rotation modes:
   37   2
 Vibrational temperatures:    254.48   305.56   545.56   629.98   630.23
          (Kelvin)           1019.15  1177.59  1324.79  1391.08  1424.51
                             1477.46  1569.30  1599.29  1875.00  2048.65
                             2051.60  2096.28  2136.24  2155.72  2161.57
                             2182.22  2502.86  4347.37  4355.93  4418.61
                             4423.33  4495.72  4498.11  4530.45  4648.63

 Zero-point correction=                           0.108111 (Hartree/Particle)
 Thermal correction to Energy=                    0.332106
 Thermal correction to Enthalpy=                  0.341606
 Thermal correction to Gibbs Free Energy=        -0.482061
 Sum of electronic and zero-point Energies=           -157.130730
 Sum of electronic and thermal Energies=              -156.906734
 Sum of electronic and thermal Enthalpies=            -156.897234
 Sum of electronic and thermal Free Energies=         -157.720901

                     E (Thermal)             CV                S
                      KCal/Mol        Cal/Mol-Kelvin    Cal/Mol-Kelvin
 Total                  208.400             61.900            172.286
 Corrected for
 internal rot.          204.461             59.984            170.587
 Electronic               0.000              0.000              0.000
 Translational            8.942              2.981             49.489
 Rotational               8.942              2.981             29.835
 Vibrational            190.515             55.938             92.962
 Vibration     1          5.965              1.986              6.891
 Vibration     2          5.967              1.985              6.527
 Vibration     3          5.978              1.982              5.377
 Vibration     4          5.984              1.980              5.092
 Vibration     5          5.984              1.980              5.091
 Vibration     6          6.019              1.968              4.142
 Vibration     7          6.038              1.962              3.858
 Vibration     8          6.058              1.955              3.628
 Vibration     9          6.068              1.952              3.532
 Vibration    10          6.073              1.950              3.486
 Vibration    11          6.082              1.948              3.415
 Vibration    12          6.097              1.943              3.297
 Vibration    13          6.102              1.941              3.261
 Vibration    14          6.154              1.924              2.953
 Vibration    15          6.192              1.912              2.783
 Vibration    16          6.192              1.912              2.781
 Vibration    17          6.202              1.908              2.739
 Vibration    18          6.211              1.905              2.703
 Vibration    19          6.216              1.904              2.686
 Vibration    20          6.217              1.903              2.681
 Vibration    21          6.222              1.902              2.663
 Vibration    22          6.303              1.876              2.404
 Vibration    23          6.970              1.673              1.415
 Vibration    24          6.974              1.672              1.412
 Vibration    25          7.002              1.664              1.388
 Vibration    26          7.004              1.663              1.386
 Vibration    27          7.038              1.654              1.359
 Vibration    28          7.039              1.653              1.359
 Vibration    29          7.054              1.649              1.347
 Vibration    30          7.109              1.633              1.304

 Normal termination of Gaussian 16 at Tue May  3 12:09:36 2022.
