 Gaussian 16, Revision C.01,

 ----------------------------------------------------------------------
 # opt freq=hinderedrotor B3LYP/6-31g(d,p) scf=fermi symm=veryloose pre
 ss=0.987
 ----------------------------------------------------------------------

 ------
 C=CC_1
 ------
 Symbolic Z-matrix:
 Charge =  0 Multiplicity = 1

 SCF Done:  E(RB3LYP) =  -117.913248990     A.U. after   12 cycles
 SCF Done:  E(RB3LYP) =  -117.913420096     A.U. after    9 cycles
 SCF Done:  E(RB3LYP) =  -117.913650709     A.U. after   10 cycles
 SCF Done:  E(RB3LYP) =  -117.908975980     A.U. after   13 cycles
 SCF Done:  E(RB3LYP) =  -117.914940294     A.U. after   11 cycles
 SCF Done:  E(RB3LYP) =  -117.912562501     A.U. after   11 cycles
 SCF Done:  E(RB3LYP) =  -117.889092185     A.U. after   11 cycles
 SCF Done:  E(RB3LYP) =  -117.889881174     A.U. after   11 cycles
 SCF Done:  E(RB3LYP) =  -117.914948565     A.U. after    6 cycles
 SCF Done:  E(RB3LYP) =  -117.916054046     A.U. after   11 cycles
 SCF Done:  E(RB3LYP) =  -117.916452171     A.U. after   10 cycles
 SCF Done:  E(RB3LYP) =  -117.916548002     A.U. after    9 cycles
 SCF Done:  E(RB3LYP) =  -117.916551108     A.U. after    7 cycles
 Optimization completed.
    -- Stationary point found.
 Normal termination of Gaussian 16 at Tue May  3 11:58:26 2022.

 ----------------------------------------------------------------------
 #N Geom=AllCheck Guess=TCheck SCRF=Check GenChk RB3LYP/6-31G(d,p) Freq
 ----------------------------------------------------------------------

 Structure from the checkpoint file:  "C=CC.chk"
 ------
 C=CC_1
 ------
 Charge =  0 Multiplicity = 1

 SCF Done:  E(RB3LYP) =  -117.916551086     A.U. after    6 cycles

 The electronic state is 1-A'.
 Alpha  occ. eigenvalues --  -10.18735 -10.18075 -10.17299  -0.77993  -0.68050
 Alpha  occ. eigenvalues --   -0.54948  -0.46092  -0.41549  -0.40802  -0.36750
 Alpha  occ. eigenvalues --   -0.34130  -0.25023
 Alpha virt. eigenvalues --    0.02724   0.11385   0.13575   0.15067   0.17565
 Alpha virt. eigenvalues --    0.18049   0.19321   0.28635   0.37654   0.49337
 Alpha virt. eigenvalues --    0.52601   0.53360   0.60632   0.62888   0.65483

 Mulliken charges:
               1
     1  C   -0.236005
     2  C   -0.023262
     3  C   -0.350006
     4  H    0.094181
     5  H    0.089514
     6  H    0.083400
     7  H    0.110046
     8  H    0.116066
     9  H    0.116066
 Sum of Mulliken charges =   0.00000

 Dipole moment (field-independent basis, Debye):
    X=             -0.1264    Y=             -0.3451    Z=              0.0000  Tot=              0.3675
 Quadrupole moment (field-independent basis, Debye-Ang):
   XX=            -18.7124   YY=            -18.9232   ZZ=            -21.2620
   XY=              0.0879   XZ=             -0.0000   YZ=             -0.0000

  Exact polarizability:      33.595       5.428      42.623      -0.000       0.000      19.407
 Approx polarizability:      48.131      11.925      57.461      -0.000      -0.000      26.122

 Optimization completed.
    -- Stationary point found.
 Normal termination of Gaussian 16 at Tue May  3 11:58:39 2022.

 ----------------------------------------------------------------------
 # freq=(readfc,hinderedrotor) temp=200 press=0.987 geom=allcheck guess
 =read
 ----------------------------------------------------------------------

 Structure from the checkpoint file:  "C=CC.chk"
 ------
 C=CC_1
 ------
 Charge =  0 Multiplicity = 1

 Normal termination of Gaussian 16 at Tue May  3 11:58:39 2022.

 ----------------------------------------------------------------------
 # freq=(readfc,hinderedrotor) temp=250 press=0.987 geom=allcheck guess
 =read
 ----------------------------------------------------------------------

 Structure from the checkpoint file:  "C=CC.chk"
 ------
 C=CC_1
 ------
 Charge =  0 Multiplicity = 1

 Normal termination of Gaussian 16 at Tue May  3 11:58:40 2022.

 ----------------------------------------------------------------------
 # freq=(readfc,hinderedrotor) temp=300 press=0.987 geom=allcheck guess
 =read
 ----------------------------------------------------------------------

 Structure from the checkpoint file:  "C=CC.chk"
 ------
 C=CC_1
 ------
 Charge =  0 Multiplicity = 1

 ----------------------------------------------------------------------
 # freq=(readfc,hinderedrotor) temp=350 press=0.987 geom=allcheck guess
 =read
 ----------------------------------------------------------------------

 Structure from the checkpoint file:  "C=CC.chk"
 ------
 C=CC_1
 ------
 Charge =  0 Multiplicity = 1

 Normal termination of Gaussian 16 at Tue May  3 11:59:14 2022.
 Normal termination of Gaussian 16 at Tue May  3 11:59:14 2022.
 Normal termination of Gaussian 16 at Tue May  3 11:59:15 2022.
 Gaussian 16:  ES64L-G16RevC.01  3-Jul-2019

                         Standard orientation:
 ---------------------------------------------------------------------
 Center     Atomic      Atomic             Coordinates (Angstroms)
 Number     Number       Type             X           Y           Z
 ---------------------------------------------------------------------
      1          6           0        1.292703    0.149993   -0.000000
      2          6           0       -0.000000    0.474495   -0.000000
      3          6           0       -1.138428   -0.504186    0.000000
      4          1           0        2.072113    0.906016   -0.000000
      5          1           0        1.619491   -0.887406    0.000000
      6          1           0       -0.277587    1.529132   -0.000000
      7          1           0       -0.779669   -1.537753    0.000000
      8          1           0       -1.780000   -0.365900   -0.879399
      9          1           0       -1.780000   -0.365900    0.879399
 ---------------------------------------------------------------------

                      1                      2                      3
                     ?A                     ?B                     ?A
 Frequencies --    207.9296               424.3987               588.5957
 Red. masses --      1.1617                 1.9573                 1.1969
 Frc consts  --      0.0296                 0.2077                 0.2443
 IR Inten    --      0.4744                 0.9965                 9.4849

                      4                      5                      6
                     ?C                     ?D                     ?E
 Frequencies --    930.1940               937.6500               949.5365
 Red. masses --      2.4201                 1.3366                 1.1527
 Frc consts  --      1.2338                 0.6924                 0.6124
 IR Inten    --      2.0127                36.7404                 4.1539

                      7                      8                      9
                     A"                     ?F                     ?G
 Frequencies --   1033.0971              1073.5058              1195.7733
 Red. masses --      1.0490                 1.5331                 1.8087
 Frc consts  --      0.6596                 1.0410                 1.5238
 IR Inten    --      9.6305                 0.7067                 0.3570

                     10                     11                     12
                     ?H                     ?H                     ?H
 Frequencies --   1331.6591              1420.0219              1461.3506
 Red. masses --      1.2419                 1.2108                 1.2131
 Frc consts  --      1.2975                 1.4385                 1.5264
 IR Inten    --      0.3255                 0.7741                 0.6717

                     13                     14                     15
                     A"                     ?I                     ?J
 Frequencies --   1493.7304              1507.6699              1734.2354
 Red. masses --      1.0448                 1.0568                 4.4463
 Frc consts  --      1.3735                 1.4153                 7.8788
 IR Inten    --      5.8154                 9.9250                10.2532

                     16                     17                     18
                     A'                     ?K                     ?I
 Frequencies --   3028.4131              3078.9785              3115.7971
 Red. masses --      1.0372                 1.0999                 1.0987
 Frc consts  --      5.6046                 6.1433                 6.2843
 IR Inten    --     25.9916                25.6992                 9.1272

                     19                     20                     21
                     ?I                     ?I                     ?E
 Frequencies --   3141.2280              3150.5053              3233.5285
 Red. masses --      1.0755                 1.0769                 1.1155
 Frc consts  --      6.2526                 6.2976                 6.8717
 IR Inten    --     35.9703                 4.0761                21.9582

 - Thermochemistry -
 -------------------
 Temperature  3000.000 Kelvin.  Pressure   0.98700 Atm.
 Atom     1 has atomic number  6 and mass  12.00000

 Molecular mass:    42.04695 amu.
 Principal axes and moments of inertia in atomic units:
                           1         2         3
     Eigenvalues --    38.53247 194.98088 222.38029
           X            0.96030  -0.27895   0.00000
           Y            0.27895   0.96030   0.00000
           Z           -0.00000  -0.00000   1.00000
 This molecule is an asymmetric top.
 Rotational symmetry number  1.
 Rotational temperatures (Kelvin)      2.24782     0.44422     0.38949
 Rotational constants (GHZ):          46.83690     9.25599     8.11556
 Zero-point vibrational energy     209572.6 (Joules/Mol)
                                   50.08905 (Kcal/Mol)
 Warning -- explicit consideration of  21 degrees of freedom as
           vibrations may cause significant error
 Identified internal rotation modes:
   28
 Vibrational temperatures:    299.16   610.62   846.86  1338.34  1349.07
          (Kelvin)           1366.17  1486.40  1544.54  1720.45  1915.96
                             2043.09  2102.56  2149.14  2169.20  2495.18
                             4357.21  4429.96  4482.94  4519.53  4532.87
                             4652.33

 Zero-point correction=                           0.079822 (Hartree/Particle)
 Thermal correction to Energy=                    0.241974
 Thermal correction to Enthalpy=                  0.251474
 Thermal correction to Gibbs Free Energy=        -0.411962
 Sum of electronic and zero-point Energies=           -117.836729
 Sum of electronic and thermal Energies=              -117.674577
 Sum of electronic and thermal Enthalpies=            -117.665077
 Sum of electronic and thermal Free Energies=         -118.328513

                     E (Thermal)             CV                S
                      KCal/Mol        Cal/Mol-Kelvin    Cal/Mol-Kelvin
 Total                  151.841             44.934            138.771
 Corrected for
 internal rot.          149.805             43.971            137.860
 Electronic               0.000              0.000              0.000
 Translational            8.942              2.981             48.631
 Rotational               8.942              2.981             28.922
 Vibrational            133.956             38.972             61.217
 Vibration     1          5.967              1.986              6.569
 Vibration     2          5.982              1.980              5.154
 Vibration     3          6.001              1.974              4.507
 Vibration     4          6.060              1.955              3.608
 Vibration     5          6.062              1.954              3.592
 Vibration     6          6.064              1.953              3.567
 Vibration     7          6.083              1.947              3.403
 Vibration     8          6.093              1.944              3.328
 Vibration     9          6.124              1.934              3.119
 Vibration    10          6.163              1.921              2.912
 Vibration    11          6.190              1.912              2.789
 Vibration    12          6.204              1.908              2.734
 Vibration    13          6.214              1.904              2.692
 Vibration    14          6.219              1.903              2.674
 Vibration    15          6.301              1.877              2.410
 Vibration    16          6.975              1.672              1.411
 Vibration    17          7.007              1.662              1.384
 Vibration    18          7.032              1.655              1.364
 Vibration    19          7.049              1.650              1.351
 Vibration    20          7.055              1.649              1.346
 Vibration    21          7.111              1.633              1.303

 Normal termination of Gaussian 16 at Tue May  3 11:59:16 2022.
