 Gaussian 16, Revision C.01,

 ----------------------------------------------------------------------
 # opt freq=hinderedrotor B3LYP/6-31g(d,p) scf=fermi symm=veryloose pre
 ss=0.987
 ----------------------------------------------------------------------

 -----
 CCC_1
 -----
 Symbolic Z-matrix:
 Charge =  0 Multiplicity = 1

 SCF Done:  E(RB3LYP) =  -119.155149653     A.U. after   11 cycles
 SCF Done:  E(RB3LYP) =  -119.155350245     A.U. after    9 cycles
 SCF Done:  E(RB3LYP) =  -119.155359498     A.U. after    7 cycles
 Optimization completed.
    -- Stationary point found.
 Normal termination of Gaussian 16 at Tue May  3 12:02:49 2022.

 ----------------------------------------------------------------------
 #N Geom=AllCheck Guess=TCheck SCRF=Check GenChk RB3LYP/6-31G(d,p) Freq
 ----------------------------------------------------------------------

 Structure from the checkpoint file:  "CCC.chk"
 -----
 CCC_1
 -----
 Charge =  0 Multiplicity = 1

 SCF Done:  E(RB3LYP) =  -119.155359498     A.U. after    1 cycles

 The electronic state is 1-A1.
 Alpha  occ. eigenvalues --  -10.17853 -10.17024 -10.17023  -0.77434  -0.67583
 Alpha  occ. eigenvalues --   -0.58007  -0.45087  -0.43076  -0.39307  -0.37578
 Alpha  occ. eigenvalues --   -0.33329  -0.33218  -0.32333
 Alpha virt. eigenvalues --    0.09613   0.14834   0.14991   0.15032   0.17054
 Alpha virt. eigenvalues --    0.19350   0.19401   0.19691   0.22696   0.26618
 Alpha virt. eigenvalues --    0.50903   0.51331   0.54348   0.54931   0.57324

 Mulliken charges:
               1
     1  C   -0.310101
     2  C   -0.171739
     3  C   -0.310101
     4  H    0.099416
     5  H    0.101023
     6  H    0.101023
     7  H    0.094509
     8  H    0.094509
     9  H    0.101023
    10  H    0.099416
    11  H    0.101023
 Sum of Mulliken charges =   0.00000

 Dipole moment (field-independent basis, Debye):
    X=              0.0000    Y=             -0.0000    Z=              0.0498  Tot=              0.0498
 Quadrupole moment (field-independent basis, Debye-Ang):
   XX=            -21.2620   YY=            -21.8280   ZZ=            -21.5656
   XY=             -0.0000   XZ=             -0.0000   YZ=              0.0000

  Exact polarizability:      32.259      -0.000      36.838       0.000       0.000      33.072
 Approx polarizability:      44.280      -0.000      43.401      -0.000       0.000      43.645

 Optimization completed.
    -- Stationary point found.
 Normal termination of Gaussian 16 at Tue May  3 12:03:00 2022.

 ----------------------------------------------------------------------
 # freq=(readfc,hinderedrotor) temp=200 press=0.987 geom=allcheck guess
 =read
 ----------------------------------------------------------------------

 Structure from the checkpoint file:  "CCC.chk"
 -----
 CCC_1
 -----
 Charge =  0 Multiplicity = 1

 Normal termination of Gaussian 16 at Tue May  3 12:03:00 2022.

 ----------------------------------------------------------------------
 # freq=(readfc,hinderedrotor) temp=250 press=0.987 geom=allcheck guess
 =read
 ----------------------------------------------------------------------

 Structure from the checkpoint file:  "CCC.chk"
 -----
 CCC_1
 -----
 Charge =  0 Multiplicity = 1

 Normal termination of Gaussian 16 at Tue May  3 12:03:01 2022.

 ----------------------------------------------------------------------
 # freq=(readfc,hinderedrotor) temp=300 press=0.987 geom=allcheck guess
 =read
 ----------------------------------------------------------------------

 Structure from the checkpoint file:  "CCC.chk"
 -----
 CCC_1
 -----
 Charge =  0 Multiplicity = 1

 ----------------------------------------------------------------------
 # freq=(readfc,hinderedrotor) temp=350 press=0.987 geom=allcheck guess
 =read
 ----------------------------------------------------------------------

 Structure from the checkpoint file:  "CCC.chk"
 -----
 CCC_1
 -----
 Charge =  0 Multiplicity = 1

 Normal termination of Gaussian 16 at Tue May  3 12:03:25 2022.
 Normal termination of Gaussian 16 at Tue May  3 12:03:25 2022.
 Normal termination of Gaussian 16 at Tue May  3 12:03:25 2022.
 Gaussian 16:  ES64L-G16RevC.01  3-Jul-2019

                         Standard orientation:
 ---------------------------------------------------------------------
 Center     Atomic      Atomic             Coordinates (Angstroms)
 Number     Number       Type             X           Y           Z
 ---------------------------------------------------------------------
      1          6           0        0.000000   -1.276933   -0.259564
      2          6           0       -0.000000   -0.000000    0.585796
      3          6           0        0.000000    1.276933   -0.259564
      4          1           0        0.000000   -2.174981    0.367096
      5          1           0        0.883697   -1.322939   -0.906877
      6          1           0       -0.883697   -1.322939   -0.906877
      7          1           0        0.876553   -0.000000    1.246652
      8          1           0       -0.876553    0.000000    1.246652
      9          1           0        0.883697    1.322939   -0.906877
     10          1           0        0.000000    2.174981    0.367096
     11          1           0       -0.883697    1.322939   -0.906877
 ---------------------------------------------------------------------

                      1                      2                      3
                     A2                     ?A                     ?B
 Frequencies --    228.6931               276.8650               367.4201
 Red. masses --      1.0276                 1.1370                 2.0596
 Frc consts  --      0.0317                 0.0514                 0.1638
 IR Inten    --      0.0000                 0.0006                 0.1345

                      4                      5                      6
                     ?C                     ?D                     ?E
 Frequencies --    754.4646               877.6564               914.7175
 Red. masses --      1.0794                 2.5637                 1.1006
 Frc consts  --      0.3620                 1.1635                 0.5426
 IR Inten    --      3.6100                 0.7481                 0.0000

                      7                      8                      9
                     ?F                     ?G                     ?H
 Frequencies --    935.8589              1063.8004              1183.1149
 Red. masses --      1.1994                 2.4066                 1.7784
 Frc consts  --      0.6189                 1.6046                 1.4667
 IR Inten    --      2.1123                 0.4428                 1.2659

                     10                     11                     12
                     ?I                     ?E                     ?J
 Frequencies --   1220.1970              1322.9579              1375.4455
 Red. masses --      1.6636                 1.1240                 1.3973
 Frc consts  --      1.4594                 1.1591                 1.5575
 IR Inten    --      0.2442                 0.0000                 5.1026

                     13                     14                     15
                     ?K                     ?L                     A1
 Frequencies --   1420.8603              1436.4563              1504.6191
 Red. masses --      1.2966                 1.2344                 1.0477
 Frc consts  --      1.5422                 1.5006                 1.3975
 IR Inten    --      3.0456                 1.3796                 0.0158

                     16                     17                     18
                     A2                     ?L                     B1
 Frequencies --   1504.8163              1512.8620              1522.5398
 Red. masses --      1.0388                 1.0521                 1.0407
 Frc consts  --      1.3860                 1.4188                 1.4214
 IR Inten    --      0.0000                 1.4187                 9.8055

                     19                     20                     21
                     ?L                     ?L                     B2
 Frequencies --   1528.6459              3030.0747              3031.5823
 Red. masses --      1.0782                 1.0605                 1.0355
 Frc consts  --      1.4844                 5.7369                 5.6073
 IR Inten    --      2.8743                21.8149                34.7118

                     22                     23                     24
                     A1                     ?A                     ?E
 Frequencies --   3035.6119              3057.1477              3095.9222
 Red. masses --      1.0364                 1.1025                 1.1026
 Frc consts  --      5.6267                 6.0710                 6.2264
 IR Inten    --     28.0140                 6.2492                 0.0000

                     25                     26                     27
                     ?A                     ?L                     ?L
 Frequencies --   3106.4717              3106.9442              3109.2745
 Red. masses --      1.1030                 1.1023                 1.1012
 Frc consts  --      6.2716                 6.2691                 6.2722
 IR Inten    --    102.2586                30.3860                53.8668

 - Thermochemistry -
 -------------------
 Temperature  3000.000 Kelvin.  Pressure   0.98700 Atm.
 Atom     1 has atomic number  6 and mass  12.00000

 Molecular mass:    44.06260 amu.
 Principal axes and moments of inertia in atomic units:
                           1         2         3
     Eigenvalues --    61.23587 215.76670 243.45711
           X            0.00000   0.00000   1.00000
           Y            1.00000   0.00000  -0.00000
           Z           -0.00000   1.00000  -0.00000
 This molecule is an asymmetric top.
 Rotational symmetry number  2.
 Rotational temperatures (Kelvin)      1.41443     0.40142     0.35577
 Rotational constants (GHZ):          29.47196     8.36432     7.41297
 Zero-point vibrational energy     272300.1 (Joules/Mol)
                                   65.08128 (Kcal/Mol)
 Warning -- explicit consideration of  27 degrees of freedom as
           vibrations may cause significant error
 Identified internal rotation modes:
   34   2
 Vibrational temperatures:    329.04   398.35   528.64  1085.51  1262.75
          (Kelvin)           1316.07  1346.49  1530.57  1702.24  1755.59
                             1903.44  1978.96  2044.30  2066.74  2164.81
                             2165.10  2176.67  2190.60  2199.38  4359.60
                             4361.77  4367.57  4398.55  4454.34  4469.52
                             4470.20  4473.55

 Zero-point correction=                           0.103714 (Hartree/Particle)
 Thermal correction to Energy=                    0.303084
 Thermal correction to Enthalpy=                  0.312584
 Thermal correction to Gibbs Free Energy=        -0.428862
 Sum of electronic and zero-point Energies=           -119.051646
 Sum of electronic and thermal Energies=              -118.852276
 Sum of electronic and thermal Enthalpies=            -118.842775
 Sum of electronic and thermal Free Energies=         -119.584221

                     E (Thermal)             CV                S
                      KCal/Mol        Cal/Mol-Kelvin    Cal/Mol-Kelvin
 Total                  190.188             56.039            155.088
 Corrected for
 internal rot.          187.052             54.200            154.119
 Electronic               0.000              0.000              0.000
 Translational            8.942              2.981             48.771
 Rotational               8.942              2.981             28.195
 Vibrational            172.303             50.077             78.122
 Vibration     1          5.968              1.985              6.380
 Vibration     2          5.970              1.984              6.001
 Vibration     3          5.977              1.982              5.440
 Vibration     4          6.027              1.966              4.018
 Vibration     5          6.049              1.958              3.721
 Vibration     6          6.057              1.956              3.640
 Vibration     7          6.061              1.954              3.596
 Vibration     8          6.090              1.945              3.346
 Vibration     9          6.121              1.935              3.140
 Vibration    10          6.131              1.931              3.080
 Vibration    11          6.160              1.922              2.924
 Vibration    12          6.176              1.917              2.850
 Vibration    13          6.191              1.912              2.787
 Vibration    14          6.196              1.910              2.767
 Vibration    15          6.218              1.903              2.678
 Vibration    16          6.218              1.903              2.678
 Vibration    17          6.221              1.902              2.668
 Vibration    18          6.224              1.901              2.656
 Vibration    19          6.226              1.901              2.648
 Vibration    20          6.976              1.672              1.411
 Vibration    21          6.977              1.671              1.410
 Vibration    22          6.979              1.670              1.408
 Vibration    23          6.993              1.666              1.396
 Vibration    24          7.019              1.659              1.375
 Vibration    25          7.026              1.657              1.369
 Vibration    26          7.026              1.657              1.369
 Vibration    27          7.027              1.657              1.368

 Normal termination of Gaussian 16 at Tue May  3 12:03:26 2022.
