 Gaussian 16, Revision C.01,

 ----------------------------------------------------------------------
 # opt freq=hinderedrotor B3LYP/6-31g(d,p) scf=fermi symm=veryloose pre
 ss=0.987
 ----------------------------------------------------------------------

 ------
 CCCC_1
 ------
 Symbolic Z-matrix:
 Charge =  0 Multiplicity = 1

 SCF Done:  E(RB3LYP) =  -158.471684536     A.U. after   11 cycles
 SCF Done:  E(RB3LYP) =  -158.471939396     A.U. after    9 cycles
 SCF Done:  E(RB3LYP) =  -158.471953906     A.U. after    7 cycles
 Optimization completed.
    -- Stationary point found.
 Normal termination of Gaussian 16 at Tue May  3 11:57:00 2022.

 ----------------------------------------------------------------------
 #N Geom=AllCheck Guess=TCheck SCRF=Check GenChk RB3LYP/6-31G(d,p) Freq
 ----------------------------------------------------------------------

 Structure from the checkpoint file:  "CCCC.chk"
 ------
 CCCC_1
 ------
 Charge =  0 Multiplicity = 1

 SCF Done:  E(RB3LYP) =  -158.471953906     A.U. after    1 cycles

 The electronic state is 1-AG.
 Alpha  occ. eigenvalues --  -10.17620 -10.17599 -10.17032 -10.17032  -0.78750
 Alpha  occ. eigenvalues --   -0.71845  -0.62580  -0.57119  -0.46210  -0.42047
 Alpha  occ. eigenvalues --   -0.41342  -0.40556  -0.36392  -0.34591  -0.32895
 Alpha  occ. eigenvalues --   -0.31803  -0.31743
 Alpha virt. eigenvalues --    0.09486   0.12070   0.13601   0.14599   0.17060
 Alpha virt. eigenvalues --    0.18372   0.18475   0.18758   0.19791   0.19833
 Alpha virt. eigenvalues --    0.24615   0.25678   0.26185   0.49455   0.50024

 Mulliken charges:
               1
     1  C   -0.317316
     2  C   -0.165050
     3  C   -0.165050
     4  C   -0.317316
     5  H    0.099069
     6  H    0.101298
     7  H    0.101298
     8  H    0.090351
     9  H    0.090351
    10  H    0.090351
    11  H    0.090351
    12  H    0.101298
    13  H    0.099069
    14  H    0.101298
 Sum of Mulliken charges =   0.00000

 Dipole moment (field-independent basis, Debye):
    X=              0.0000    Y=             -0.0000    Z=              0.0000  Tot=              0.0000
 Quadrupole moment (field-independent basis, Debye-Ang):
   XX=            -28.1378   YY=            -28.7667   ZZ=            -27.7888
   XY=             -0.0306   XZ=              0.0000   YZ=              0.0000

  Exact polarizability:      43.965       3.275      49.173       0.000       0.000      41.391
 Approx polarizability:      58.285       0.182      57.494       0.000      -0.000      58.849

 Optimization completed.
    -- Stationary point found.
 Normal termination of Gaussian 16 at Tue May  3 11:57:14 2022.

 ----------------------------------------------------------------------
 # freq=(readfc,hinderedrotor) temp=200 press=0.987 geom=allcheck guess
 =read
 ----------------------------------------------------------------------

 Structure from the checkpoint file:  "CCCC.chk"
 ------
 CCCC_1
 ------
 Charge =  0 Multiplicity = 1

 Normal termination of Gaussian 16 at Tue May  3 11:57:14 2022.

 ----------------------------------------------------------------------
 # freq=(readfc,hinderedrotor) temp=250 press=0.987 geom=allcheck guess
 =read
 ----------------------------------------------------------------------

 Structure from the checkpoint file:  "CCCC.chk"
 ------
 CCCC_1
 ------
 Charge =  0 Multiplicity = 1

 Normal termination of Gaussian 16 at Tue May  3 11:57:15 2022.

 ----------------------------------------------------------------------
 # freq=(readfc,hinderedrotor) temp=300 press=0.987 geom=allcheck guess
 =read
 ----------------------------------------------------------------------

 Structure from the checkpoint file:  "CCCC.chk"
 ------
 CCCC_1
 ------
 Charge =  0 Multiplicity = 1

 ----------------------------------------------------------------------
 # freq=(readfc,hinderedrotor) temp=350 press=0.987 geom=allcheck guess
 =read
 ----------------------------------------------------------------------

 Structure from the checkpoint file:  "CCCC.chk"
 ------
 CCCC_1
 ------
 Charge =  0 Multiplicity = 1

 Normal termination of Gaussian 16 at Tue May  3 11:57:45 2022.
 Normal termination of Gaussian 16 at Tue May  3 11:57:46 2022.
 Normal termination of Gaussian 16 at Tue May  3 11:57:46 2022.
 Gaussian 16:  ES64L-G16RevC.01  3-Jul-2019

                         Standard orientation:
 ---------------------------------------------------------------------
 Center     Atomic      Atomic             Coordinates (Angstroms)
 Number     Number       Type             X           Y           Z
 ---------------------------------------------------------------------
      1          6           0        0.704307    1.834623    0.000000
      2          6           0        0.704307    0.303717    0.000000
      3          6           0       -0.704307   -0.303717    0.000000
      4          6           0       -0.704307   -1.834623    0.000000
      5          1           0        1.722766    2.236787    0.000000
      6          1           0        0.190942    2.231360    0.883793
      7          1           0        0.190942    2.231360   -0.883793
      8          1           0        1.254723   -0.063802    0.877208
      9          1           0        1.254723   -0.063802   -0.877208
     10          1           0       -1.254723    0.063802   -0.877208
     11          1           0       -1.254723    0.063802    0.877208
     12          1           0       -0.190942   -2.231360   -0.883793
     13          1           0       -1.722766   -2.236787    0.000000
     14          1           0       -0.190942   -2.231360    0.883793
 ---------------------------------------------------------------------

                      1                      2                      3
                     ?A                     ?B                     ?C
 Frequencies --    122.8643               228.9645               258.7402
 Red. masses --      1.9381                 1.0548                 2.2508
 Frc consts  --      0.0172                 0.0326                 0.0888
 IR Inten    --      0.0038                 0.0013                 0.0584

                      4                      5                      6
                     ?D                     ?E                     ?B
 Frequencies --    267.0447               424.6053               740.7138
 Red. masses --      1.1224                 2.7325                 1.0707
 Frc consts  --      0.0472                 0.2903                 0.3461
 IR Inten    --      0.0000                 0.0000                 3.7140

                      7                      8                      9
                     ?D                     ?F                     ?G
 Frequencies --    815.2436               844.9843               966.4256
 Red. masses --      1.1254                 1.9798                 1.1189
 Frc consts  --      0.4407                 0.8328                 0.6157
 IR Inten    --      0.0000                 0.0000                 1.1632

                     10                     11                     12
                     ?H                     ?I                     ?J
 Frequencies --    984.3656              1023.2350              1069.0103
 Red. masses --      1.3243                 2.7818                 2.3603
 Frc consts  --      0.7561                 1.7160                 1.5892
 IR Inten    --      5.6942                 0.3368                 0.0000

                     13                     14                     15
                     ?K                     ?L                     ?L
 Frequencies --   1174.4129              1216.3783              1296.2981
 Red. masses --      2.0335                 1.7511                 1.2460
 Frc consts  --      1.6525                 1.5265                 1.2336
 IR Inten    --      0.0000                 0.0000                 0.0824

                     16                     17                     18
                     ?H                     ?L                     ?L
 Frequencies --   1329.4595              1338.1080              1407.3536
 Red. masses --      1.3484                 1.0695                 1.5392
 Frc consts  --      1.4042                 1.1283                 1.7962
 IR Inten    --      6.1303                 0.0000                 0.0000

                     19                     20                     21
                     ?L                     ?L                     ?L
 Frequencies --   1426.7905              1429.3433              1500.9839
 Red. masses --      1.2566                 1.2490                 1.0639
 Frc consts  --      1.5072                 1.5035                 1.4122
 IR Inten    --      0.0000                 2.3873                 0.0000

                     22                     23                     24
                     ?L                     BG                     AU
 Frequencies --   1505.8018              1513.7162              1514.9193
 Red. masses --      1.0527                 1.0441                 1.0365
 Frc consts  --      1.4064                 1.4095                 1.4015
 IR Inten    --      1.4326                 0.0000                10.7496

                     25                     26                     27
                     ?L                     ?L                     ?L
 Frequencies --   1520.5642              1526.9556              3014.9779
 Red. masses --      1.0640                 1.0848                 1.0589
 Frc consts  --      1.4495                 1.4902                 5.6710
 IR Inten    --      0.0000                 4.2432                 0.0000

                     28                     29                     30
                     ?L                     BU                     AG
 Frequencies --   3022.5301              3033.9753              3034.4195
 Red. masses --      1.0594                 1.0369                 1.0365
 Frc consts  --      5.7022                 5.6235                 5.6232
 IR Inten    --     45.8082                80.5483                 0.0000

                     31                     32                     33
                     ?D                     ?B                     ?D
 Frequencies --   3039.3119              3061.0305              3099.0937
 Red. masses --      1.1012                 1.1047                 1.1029
 Frc consts  --      5.9932                 6.0986                 6.2412
 IR Inten    --      0.0000                26.0548                 0.0000

                     34                     35                     36
                     ?B                     ?L                     ?L
 Frequencies --   3102.9386              3107.6804              3108.4263
 Red. masses --      1.1026                 1.1018                 1.1015
 Frc consts  --      6.2547                 6.2695                 6.2708
 IR Inten    --    117.5743                 0.0000                81.3304

 - Thermochemistry -
 -------------------
 Temperature  3000.000 Kelvin.  Pressure   0.98700 Atm.
 Atom     1 has atomic number  6 and mass  12.00000

 Molecular mass:    58.07825 amu.
 Principal axes and moments of inertia in atomic units:
                           1         2         3
     Eigenvalues --    76.99286 501.35832 533.70664
           X            0.42014   0.90746   0.00000
           Y            0.90746  -0.42014   0.00000
           Z           -0.00000  -0.00000   1.00000
 This molecule is an asymmetric top.
 Rotational symmetry number  2.
 Rotational temperatures (Kelvin)      1.12496     0.17276     0.16229
 Rotational constants (GHZ):          23.44037     3.59970     3.38152
 Zero-point vibrational energy     347345.7 (Joules/Mol)
                                   83.01762 (Kcal/Mol)
 Warning -- explicit consideration of  36 degrees of freedom as
           vibrations may cause significant error
 Identified internal rotation modes:
   43   2   4
 Vibrational temperatures:    176.77   329.43   372.27   384.22   610.91
          (Kelvin)           1065.72  1172.95  1215.74  1390.47  1416.28
                             1472.21  1538.07  1689.72  1750.10  1865.08
                             1912.80  1925.24  2024.87  2052.83  2056.51
                             2159.58  2166.51  2177.90  2179.63  2187.75
                             2196.95  4337.88  4348.75  4365.21  4365.85
                             4372.89  4404.14  4458.90  4464.44  4471.26
                             4472.33

 Zero-point correction=                           0.132297 (Hartree/Particle)
 Thermal correction to Energy=                    0.393218
 Thermal correction to Enthalpy=                  0.402719
 Thermal correction to Gibbs Free Energy=        -0.504695
 Sum of electronic and zero-point Energies=           -158.339657
 Sum of electronic and thermal Energies=              -158.078736
 Sum of electronic and thermal Enthalpies=            -158.069235
 Sum of electronic and thermal Free Energies=         -158.976649

                     E (Thermal)             CV                S
                      KCal/Mol        Cal/Mol-Kelvin    Cal/Mol-Kelvin
 Total                  246.748             73.003            189.804
 Corrected for
 internal rot.          241.988             70.236            188.307
 Electronic               0.000              0.000              0.000
 Translational            8.942              2.981             49.594
 Rotational               8.942              2.981             30.041
 Vibrational            228.863             67.041            110.169
 Vibration     1          5.963              1.987              7.614
 Vibration     2          5.968              1.985              6.378
 Vibration     3          5.969              1.985              6.135
 Vibration     4          5.970              1.984              6.073
 Vibration     5          5.982              1.980              5.153
 Vibration     6          6.024              1.966              4.054
 Vibration     7          6.037              1.962              3.866
 Vibration     8          6.043              1.960              3.796
 Vibration     9          6.068              1.952              3.533
 Vibration    10          6.072              1.951              3.497
 Vibration    11          6.081              1.948              3.422
 Vibration    12          6.092              1.944              3.336
 Vibration    13          6.118              1.935              3.154
 Vibration    14          6.130              1.932              3.086
 Vibration    15          6.152              1.924              2.963
 Vibration    16          6.162              1.921              2.915
 Vibration    17          6.165              1.920              2.902
 Vibration    18          6.186              1.913              2.806
 Vibration    19          6.192              1.911              2.779
 Vibration    20          6.193              1.911              2.776
 Vibration    21          6.217              1.904              2.683
 Vibration    22          6.218              1.903              2.677
 Vibration    23          6.221              1.902              2.667
 Vibration    24          6.222              1.902              2.665
 Vibration    25          6.224              1.901              2.658
 Vibration    26          6.226              1.901              2.650
 Vibration    27          6.966              1.674              1.419
 Vibration    28          6.971              1.673              1.415
 Vibration    29          6.978              1.671              1.408
 Vibration    30          6.978              1.671              1.408
 Vibration    31          6.982              1.670              1.405
 Vibration    32          6.996              1.666              1.394
 Vibration    33          7.021              1.658              1.373
 Vibration    34          7.023              1.658              1.371
 Vibration    35          7.026              1.657              1.368
 Vibration    36          7.027              1.657              1.368

 Normal termination of Gaussian 16 at Tue May  3 11:57:47 2022.
