 Gaussian 16, Revision C.01,

 ----------------------------------------------------------------------
 # opt freq=hinderedrotor B3LYP/6-31g(d,p) symm=veryloose press=0.987 i
 nt=superfine
 ----------------------------------------------------------------------

 -----------
 cis-CC=CC_1
 -----------
 Symbolic Z-matrix:
 Charge =  0 Multiplicity = 1

 SCF Done:  E(RB3LYP) =  -157.223358855     A.U. after   11 cycles
 SCF Done:  E(RB3LYP) =  -157.234585487     A.U. after   11 cycles
 SCF Done:  E(RB3LYP) =  -157.234707954     A.U. after    9 cycles
 SCF Done:  E(RB3LYP) =  -157.234776762     A.U. after    9 cycles
 SCF Done:  E(RB3LYP) =  -157.235121514     A.U. after   12 cycles
 SCF Done:  E(RB3LYP) =  -157.235354908     A.U. after   10 cycles
 SCF Done:  E(RB3LYP) =  -157.235979723     A.U. after    9 cycles
 SCF Done:  E(RB3LYP) =  -157.236335128     A.U. after   10 cycles
 SCF Done:  E(RB3LYP) =  -157.236376432     A.U. after    9 cycles
 SCF Done:  E(RB3LYP) =  -157.236394866     A.U. after    9 cycles
 SCF Done:  E(RB3LYP) =  -157.236402671     A.U. after    8 cycles
 SCF Done:  E(RB3LYP) =  -157.236405251     A.U. after    7 cycles
 SCF Done:  E(RB3LYP) =  -157.236406192     A.U. after    7 cycles
 SCF Done:  E(RB3LYP) =  -157.236406373     A.U. after    6 cycles
 Optimization completed.
    -- Stationary point found.
 Normal termination of Gaussian 16 at Mon Nov  7 09:18:14 2022.

 ----------------------------------------------------------------------
 #N Geom=AllCheck Guess=TCheck SCRF=Check GenChk RB3LYP/6-31G(d,p) Freq
 ----------------------------------------------------------------------

 Structure from the checkpoint file:  "cis-CC=CC.chk"
 -----------
 cis-CC=CC_1
 -----------
 Charge =  0 Multiplicity = 1

 SCF Done:  E(RB3LYP) =  -157.236406293     A.U. after    6 cycles

 The electronic state is 1-A1.
 Alpha  occ. eigenvalues --  -10.17840 -10.17759 -10.17718 -10.17715  -0.78873
 Alpha  occ. eigenvalues --   -0.71750  -0.64956  -0.52014  -0.47103  -0.41103
 Alpha  occ. eigenvalues --   -0.40737  -0.39603  -0.37989  -0.35699  -0.32642
 Alpha  occ. eigenvalues --   -0.23478
 Alpha virt. eigenvalues --    0.03616   0.10287   0.12030   0.14336   0.16861
 Alpha virt. eigenvalues --    0.17628   0.18995   0.19080   0.22361   0.22487
 Alpha virt. eigenvalues --    0.31629   0.46112   0.49145   0.50696   0.51866

 Mulliken charges:
               1
     1  C   -0.351775
     2  C   -0.060822
     3  C   -0.060822
     4  C   -0.351775
     5  H    0.107038
     6  H    0.114443
     7  H    0.114443
     8  H    0.076672
     9  H    0.076672
    10  H    0.107038
    11  H    0.114443
    12  H    0.114443
 Sum of Mulliken charges =  -0.00000

 Dipole moment (field-independent basis, Debye):
    X=              0.0000    Y=             -0.0000    Z=             -0.1998  Tot=              0.1998
 Quadrupole moment (field-independent basis, Debye-Ang):
   XX=            -27.5560   YY=            -24.7763   ZZ=            -25.7640
   XY=             -0.0000   XZ=             -0.0000   YZ=             -0.0000

  Exact polarizability:      29.558      -0.000      60.283      -0.000      -0.000      40.730
 Approx polarizability:      40.490       0.000      84.630       0.000      -0.000      53.537

 Optimization completed.
    -- Stationary point found.
 Normal termination of Gaussian 16 at Mon Nov  7 09:18:35 2022.

 ----------------------------------------------------------------------
 # freq=(readfc,hinderedrotor) temp=200 press=0.987 geom=allcheck guess
 =read
 ----------------------------------------------------------------------

 Structure from the checkpoint file:  "cis-CC=CC.chk"
 -----------
 cis-CC=CC_1
 -----------
 Charge =  0 Multiplicity = 1

 Normal termination of Gaussian 16 at Mon Nov  7 09:18:36 2022.

 ----------------------------------------------------------------------
 # freq=(readfc,hinderedrotor) temp=250 press=0.987 geom=allcheck guess
 =read
 ----------------------------------------------------------------------

 Structure from the checkpoint file:  "cis-CC=CC.chk"
 -----------
 cis-CC=CC_1
 -----------
 Charge =  0 Multiplicity = 1

 Normal termination of Gaussian 16 at Mon Nov  7 09:18:36 2022.

 ----------------------------------------------------------------------
 # freq=(readfc,hinderedrotor) temp=300 press=0.987 geom=allcheck guess
 =read
 ----------------------------------------------------------------------

 Structure from the checkpoint file:  "cis-CC=CC.chk"
 -----------
 cis-CC=CC_1
 -----------
 Charge =  0 Multiplicity = 1

 ----------------------------------------------------------------------
 # freq=(readfc,hinderedrotor) temp=350 press=0.987 geom=allcheck guess
 =read
 ----------------------------------------------------------------------

 Structure from the checkpoint file:  "cis-CC=CC.chk"
 -----------
 cis-CC=CC_1
 -----------
 Charge =  0 Multiplicity = 1

 Normal termination of Gaussian 16 at Mon Nov  7 09:18:56 2022.
 Normal termination of Gaussian 16 at Mon Nov  7 09:18:56 2022.
 Normal termination of Gaussian 16 at Mon Nov  7 09:18:57 2022.
 Gaussian 16:  ES64L-G16RevC.01  3-Jul-2019

                         Standard orientation:
 ---------------------------------------------------------------------
 Center     Atomic      Atomic             Coordinates (Angstroms)
 Number     Number       Type             X           Y           Z
 ---------------------------------------------------------------------
      1          6           0       -0.000000    1.592105   -0.521732
      2          6           0       -0.000000    0.668913    0.663839
      3          6           0       -0.000000   -0.668913    0.663839
      4          6           0       -0.000000   -1.592105   -0.521732
      5          1           0        0.000000    1.060578   -1.476099
      6          1           0        0.878899    2.249172   -0.504740
      7          1           0       -0.878899    2.249172   -0.504740
      8          1           0       -0.000000    1.168113    1.632931
      9          1           0       -0.000000   -1.168113    1.632931
     10          1           0       -0.000000   -1.060578   -1.476099
     11          1           0        0.878899   -2.249172   -0.504740
     12          1           0       -0.878899   -2.249172   -0.504740
 ---------------------------------------------------------------------

                      1                      2                      3
                     ?A                     A2                     ?B
 Frequencies --    133.0569               152.9377               289.9193
 Red. masses --      1.0588                 1.0354                 2.6066
 Frc consts  --      0.0110                 0.0143                 0.1291
 IR Inten    --      0.9148                 0.0000                 0.0015

                      4                      5                      6
                     ?C                     ?D                     ?A
 Frequencies --    395.0655               571.1912               699.9066
 Red. masses --      2.3141                 2.2180                 1.0987
 Frc consts  --      0.2128                 0.4264                 0.3171
 IR Inten    --      0.0000                 6.9216                30.9019

                      7                      8                      9
                     ?E                     ?F                     ?G
 Frequencies --    874.2357               985.7999              1010.5359
 Red. masses --      2.4923                 1.9239                 1.1133
 Frc consts  --      1.1223                 1.1016                 0.6698
 IR Inten    --      0.3946                14.0767                 0.0000

                     10                     11                     12
                     ?H                     ?I                     ?J
 Frequencies --   1028.5542              1062.1550              1071.1902
 Red. masses --      1.4414                 1.6068                 1.4352
 Frc consts  --      0.8985                 1.0680                 0.9703
 IR Inten    --      0.8996                 0.0000                 1.0387

                     13                     14                     15
                     ?K                     ?L                     ?L
 Frequencies --   1163.6325              1299.2647              1399.4729
 Red. masses --      2.0451                 1.1349                 1.2083
 Frc consts  --      1.6315                 1.1288                 1.3943
 IR Inten    --      0.9351                 0.0248                 4.2407

                     16                     17                     18
                     ?L                     ?L                     A2
 Frequencies --   1431.4383              1449.4720              1495.3357
 Red. masses --      1.2226                 1.4421                 1.0442
 Frc consts  --      1.4760                 1.7851                 1.3757
 IR Inten    --      2.5234                 7.2995                 0.0000

                     19                     20                     21
                     B1                     ?L                     ?L
 Frequencies --   1498.9299              1502.5487              1510.0093
 Red. masses --      1.0433                 1.0626                 1.0720
 Frc consts  --      1.3811                 1.4134                 1.4402
 IR Inten    --      9.4242                 2.0003                 4.5261

                     22                     23                     24
                     ?L                     B2                     A1
 Frequencies --   1751.7989              3028.2611              3030.8231
 Red. masses --      5.9873                 1.0393                 1.0406
 Frc consts  --     10.8256                 5.6154                 5.6317
 IR Inten    --      3.2529                47.8200                12.4642

                     25                     26                     27
                     ?G                     ?A                     ?L
 Frequencies --   3074.2337              3074.8364              3120.0000
 Red. masses --      1.0998                 1.0999                 1.0918
 Frc consts  --      6.1239                 6.1269                 6.2619
 IR Inten    --      0.0000                53.1501                 2.7934

                     28                     29                     30
                     ?L                     ?L                     ?L
 Frequencies --   3134.0472              3136.3700              3156.6944
 Red. masses --      1.0948                 1.0901                 1.0954
 Frc consts  --      6.3355                 6.3178                 6.4309
 IR Inten    --      8.2023                21.4254                65.6408

 - Thermochemistry -
 -------------------
 Temperature  3000.000 Kelvin.  Pressure   0.98700 Atm.
 Atom     1 has atomic number  6 and mass  12.00000

 Molecular mass:    56.06260 amu.
 Principal axes and moments of inertia in atomic units:
                           1         2         3
     Eigenvalues --   110.58078 357.45957 445.79952
           X            0.00000   0.00000   1.00000
           Y            1.00000   0.00000  -0.00000
           Z            0.00000   1.00000   0.00000
 This molecule is an asymmetric top.
 Rotational symmetry number  2.
 Rotational temperatures (Kelvin)      0.78326     0.24230     0.19429
 Rotational constants (GHZ):          16.32057     5.04880     4.04832
 Zero-point vibrational energy     284302.8 (Joules/Mol)
                                   67.95000 (Kcal/Mol)
 Warning -- explicit consideration of  30 degrees of freedom as
           vibrations may cause significant error
 Identified internal rotation modes:
   37   2
 Vibrational temperatures:    191.44   220.04   417.13   568.41   821.82
          (Kelvin)           1007.01  1257.83  1418.35  1453.94  1479.86
                             1528.20  1541.20  1674.21  1869.35  2013.53
                             2059.52  2085.47  2151.45  2156.63  2161.83
                             2172.57  2520.45  4356.99  4360.68  4423.14
                             4424.00  4488.98  4509.19  4512.54  4541.78

 Zero-point correction=                           0.108285 (Hartree/Particle)
 Thermal correction to Energy=                    0.332119
 Thermal correction to Enthalpy=                  0.341620
 Thermal correction to Gibbs Free Energy=        -0.486914
 Sum of electronic and zero-point Energies=           -157.128121
 Sum of electronic and thermal Energies=              -156.904287
 Sum of electronic and thermal Enthalpies=            -156.894787
 Sum of electronic and thermal Free Energies=         -157.723320

                     E (Thermal)             CV                S
                      KCal/Mol        Cal/Mol-Kelvin    Cal/Mol-Kelvin
 Total                  208.408             61.895            173.304
 Corrected for
 internal rot.          203.607             59.930            170.447
 Electronic               0.000              0.000              0.000
 Translational            8.942              2.981             49.489
 Rotational               8.942              2.981             29.885
 Vibrational            190.523             55.933             93.930
 Vibration     1          5.964              1.987              7.456
 Vibration     2          5.964              1.986              7.179
 Vibration     3          5.971              1.984              5.910
 Vibration     4          5.979              1.981              5.296
 Vibration     5          5.999              1.975              4.567
 Vibration     6          6.017              1.969              4.166
 Vibration     7          6.049              1.958              3.729
 Vibration     8          6.072              1.951              3.494
 Vibration     9          6.078              1.949              3.446
 Vibration    10          6.082              1.947              3.412
 Vibration    11          6.090              1.945              3.349
 Vibration    12          6.092              1.944              3.332
 Vibration    13          6.116              1.936              3.172
 Vibration    14          6.153              1.924              2.959
 Vibration    15          6.184              1.914              2.816
 Vibration    16          6.194              1.911              2.773
 Vibration    17          6.200              1.909              2.749
 Vibration    18          6.215              1.904              2.690
 Vibration    19          6.216              1.904              2.685
 Vibration    20          6.217              1.903              2.681
 Vibration    21          6.220              1.903              2.671
 Vibration    22          6.308              1.874              2.391
 Vibration    23          6.974              1.672              1.412
 Vibration    24          6.976              1.671              1.410
 Vibration    25          7.004              1.663              1.386
 Vibration    26          7.005              1.663              1.386
 Vibration    27          7.035              1.655              1.362
 Vibration    28          7.044              1.652              1.354
 Vibration    29          7.045              1.651              1.353
 Vibration    30          7.059              1.647              1.343

 Normal termination of Gaussian 16 at Mon Nov  7 09:18:57 2022.
