 Gaussian 16, Revision C.01,

 --------------------------------------------------------------------
 # opt freq=hinderedrotor B3LYP/6-31g(d,p) symm=veryloose press=0.987
 --------------------------------------------------------------------

 ---------------
 cis-C=CC(=C)C_1
 ---------------
 Symbolic Z-matrix:
 Charge =  0 Multiplicity = 1

 SCF Done:  E(RB3LYP) =  -195.305664983     A.U. after   13 cycles
 SCF Done:  E(RB3LYP) =  -195.315304728     A.U. after   12 cycles
 SCF Done:  E(RB3LYP) =  -195.316411586     A.U. after   10 cycles
 SCF Done:  E(RB3LYP) =  -195.316564322     A.U. after   10 cycles
 SCF Done:  E(RB3LYP) =  -195.316654466     A.U. after   10 cycles
 SCF Done:  E(RB3LYP) =  -195.316688246     A.U. after    9 cycles
 SCF Done:  E(RB3LYP) =  -195.316695977     A.U. after    9 cycles
 SCF Done:  E(RB3LYP) =  -195.316696697     A.U. after    7 cycles
 SCF Done:  E(RB3LYP) =  -195.316698932     A.U. after    8 cycles
 SCF Done:  E(RB3LYP) =  -195.307275158     A.U. after   12 cycles
 SCF Done:  E(RB3LYP) =  -195.317119739     A.U. after   12 cycles
 SCF Done:  E(RB3LYP) =  -195.316277297     A.U. after   14 cycles
 SCF Done:  E(RB3LYP) =  -195.317606257     A.U. after   11 cycles
 SCF Done:  E(RB3LYP) =  -195.317600464     A.U. after   10 cycles
 SCF Done:  E(RB3LYP) =  -195.317628364     A.U. after   10 cycles
 SCF Done:  E(RB3LYP) =  -195.317629055     A.U. after    8 cycles
 Optimization completed.
    -- Stationary point found.
 Normal termination of Gaussian 16 at Mon Nov  7 12:48:56 2022.

 ----------------------------------------------------------------------
 #N Geom=AllCheck Guess=TCheck SCRF=Check GenChk RB3LYP/6-31G(d,p) Freq
 ----------------------------------------------------------------------

 Structure from the checkpoint file:  "cis-C=CC(=C)C.chk"
 ---------------
 cis-C=CC(=C)C_1
 ---------------
 Charge =  0 Multiplicity = 1

 SCF Done:  E(RB3LYP) =  -195.317629055     A.U. after    1 cycles

 The electronic state is 1-A.
 Alpha  occ. eigenvalues --  -10.19611 -10.18949 -10.18165 -10.18100 -10.17349
 Alpha  occ. eigenvalues --   -0.81282  -0.73668  -0.68162  -0.60090  -0.51340
 Alpha  occ. eigenvalues --   -0.47080  -0.44441  -0.41840  -0.40720  -0.38037
 Alpha  occ. eigenvalues --   -0.35720  -0.33690  -0.29116  -0.22766
 Alpha virt. eigenvalues --   -0.01599   0.06834   0.10836   0.13420   0.13889
 Alpha virt. eigenvalues --    0.14522   0.18066   0.18581   0.19595   0.21200
 Alpha virt. eigenvalues --    0.25209   0.33275   0.35640   0.38858   0.49041

 Mulliken charges:
               1
     1  C   -0.236000
     2  C   -0.067110
     3  C    0.141582
     4  C   -0.278067
     5  C   -0.372037
     6  H    0.098219
     7  H    0.099943
     8  H    0.082577
     9  H    0.095175
    10  H    0.089857
    11  H    0.109995
    12  H    0.114970
    13  H    0.120898
 Sum of Mulliken charges =  -0.00000

 Dipole moment (field-independent basis, Debye):
    X=             -0.1720    Y=             -0.3602    Z=             -0.0206  Tot=              0.3997
 Quadrupole moment (field-independent basis, Debye-Ang):
   XX=            -29.5111   YY=            -30.1307   ZZ=            -33.4339
   XY=              0.1180   XZ=              0.0840   YZ=             -0.9702

  Exact polarizability:      68.252      -2.724      59.988      -2.459      -3.267      30.104
 Approx polarizability:      94.121      -4.408      92.428      -6.537      -5.422      43.324

 Optimization completed.
    -- Stationary point found.
 Normal termination of Gaussian 16 at Mon Nov  7 12:49:28 2022.

 ----------------------------------------------------------------------
 # freq=(readfc,hinderedrotor) temp=200 press=0.987 geom=allcheck guess
 =read
 ----------------------------------------------------------------------

 Structure from the checkpoint file:  "cis-C=CC(=C)C.chk"
 ---------------
 cis-C=CC(=C)C_1
 ---------------
 Charge =  0 Multiplicity = 1

 Normal termination of Gaussian 16 at Mon Nov  7 12:49:28 2022.

 ----------------------------------------------------------------------
 # freq=(readfc,hinderedrotor) temp=250 press=0.987 geom=allcheck guess
 =read
 ----------------------------------------------------------------------

 Structure from the checkpoint file:  "cis-C=CC(=C)C.chk"
 ---------------
 cis-C=CC(=C)C_1
 ---------------
 Charge =  0 Multiplicity = 1

 Normal termination of Gaussian 16 at Mon Nov  7 12:49:29 2022.

 ----------------------------------------------------------------------
 # freq=(readfc,hinderedrotor) temp=300 press=0.987 geom=allcheck guess
 =read
 ----------------------------------------------------------------------

 Structure from the checkpoint file:  "cis-C=CC(=C)C.chk"
 ---------------
 cis-C=CC(=C)C_1
 ---------------
 Charge =  0 Multiplicity = 1

 ----------------------------------------------------------------------
 # freq=(readfc,hinderedrotor) temp=350 press=0.987 geom=allcheck guess
 =read
 ----------------------------------------------------------------------

 Structure from the checkpoint file:  "cis-C=CC(=C)C.chk"
 ---------------
 cis-C=CC(=C)C_1
 ---------------
 Charge =  0 Multiplicity = 1

 Normal termination of Gaussian 16 at Mon Nov  7 12:49:48 2022.
 Normal termination of Gaussian 16 at Mon Nov  7 12:49:49 2022.
 Normal termination of Gaussian 16 at Mon Nov  7 12:49:49 2022.
 Gaussian 16:  ES64L-G16RevC.01  3-Jul-2019

                         Standard orientation:
 ---------------------------------------------------------------------
 Center     Atomic      Atomic             Coordinates (Angstroms)
 Number     Number       Type             X           Y           Z
 ---------------------------------------------------------------------
      1          6           0        2.033980   -0.103006   -0.186388
      2          6           0        0.851177   -0.560980    0.237716
      3          6           0       -0.454209    0.109385    0.057784
      4          6           0       -0.585082    1.443714    0.088958
      5          6           0       -1.640585   -0.805623   -0.139708
      6          1           0        2.952314   -0.651378   -0.001036
      7          1           0        2.120914    0.828266   -0.738902
      8          1           0        0.817379   -1.529703    0.738595
      9          1           0        0.261990    2.094188    0.282175
     10          1           0       -1.547717    1.922160   -0.065275
     11          1           0       -2.571963   -0.242841   -0.240002
     12          1           0       -1.748346   -1.493687    0.708558
     13          1           0       -1.516250   -1.427939   -1.034289
 ---------------------------------------------------------------------

                      1                      2                      3
                      A                      A                      A
 Frequencies --    113.9021               182.6695               269.5405
 Red. masses --      2.0845                 1.0375                 2.4763
 Frc consts  --      0.0159                 0.0204                 0.1060
 IR Inten    --      0.1094                 0.2753                 0.0445

                      4                      5                      6
                      A                      A                      A
 Frequencies --    371.4818               412.4719               544.5665
 Red. masses --      1.9938                 2.0872                 2.3432
 Frc consts  --      0.1621                 0.2092                 0.4094
 IR Inten    --      4.1303                 3.4724                 3.9974

                      7                      8                      9
                      A                      A                      A
 Frequencies --    658.7241               772.5834               805.4002
 Red. masses --      1.2823                 1.3284                 2.6268
 Frc consts  --      0.3278                 0.4671                 1.0039
 IR Inten    --      1.7963                 2.3544                 0.3303

                     10                     11                     12
                      A                      A                      A
 Frequencies --    921.1909               940.4993               967.4554
 Red. masses --      1.3507                 1.3720                 1.7107
 Frc consts  --      0.6753                 0.7150                 0.9434
 IR Inten    --     38.1960                34.5531                 0.4447

                     13                     14                     15
                      A                      A                      A
 Frequencies --   1020.0643              1034.3877              1068.8214
 Red. masses --      1.2746                 1.1536                 1.4419
 Frc consts  --      0.7814                 0.7272                 0.9705
 IR Inten    --      2.9375                12.9433                 1.1202

                     16                     17                     18
                      A                      A                      A
 Frequencies --   1104.2154              1269.5183              1338.0091
 Red. masses --      1.6175                 2.2408                 1.3837
 Frc consts  --      1.1620                 2.1278                 1.4596
 IR Inten    --      3.7949                 5.1192                 0.4045

                     19                     20                     21
                      A                      A                      A
 Frequencies --   1422.3852              1449.2798              1468.1820
 Red. masses --      1.2239                 1.2278                 1.2498
 Frc consts  --      1.4590                 1.5194                 1.5872
 IR Inten    --      1.3889                 2.0211                 6.0147

                     22                     23                     24
                      A                      A                      A
 Frequencies --   1493.6229              1508.9069              1694.0565
 Red. masses --      1.0467                 1.0597                 4.9330
 Frc consts  --      1.3758                 1.4216                 8.3409
 IR Inten    --      5.5932                 9.7022                 4.3260

                     25                     26                     27
                      A                      A                      A
 Frequencies --   1721.3120              3030.2052              3081.8407
 Red. masses --      4.3907                 1.0383                 1.0997
 Frc consts  --      7.6648                 5.6171                 6.1540
 IR Inten    --      5.3092                24.7240                22.9738

                     28                     29                     30
                      A                      A                      A
 Frequencies --   3129.1535              3132.6187              3156.9970
 Red. masses --      1.0991                 1.0856                 1.0613
 Frc consts  --      6.3405                 6.2765                 6.2321
 IR Inten    --     13.6817                29.4896                 8.0174

                     31                     32                     33
                      A                      A                      A
 Frequencies --   3159.1610              3242.5082              3244.5805
 Red. masses --      1.0625                 1.1162                 1.1163
 Frc consts  --      6.2476                 6.9146                 6.9237
 IR Inten    --      3.2430                21.8710                 6.4769

 - Thermochemistry -
 -------------------
 Temperature  3000.000 Kelvin.  Pressure   0.98700 Atm.
 Atom     1 has atomic number  6 and mass  12.00000

 Molecular mass:    68.06260 amu.
 Principal axes and moments of inertia in atomic units:
                           1         2         3
     Eigenvalues --   203.84830 464.40730 637.71441
           X            0.99977   0.02135   0.00111
           Y           -0.02133   0.99964  -0.01624
           Z           -0.00146   0.01621   0.99987
 This molecule is an asymmetric top.
 Rotational symmetry number  1.
 Rotational temperatures (Kelvin)      0.42489     0.18650     0.13582
 Rotational constants (GHZ):           8.85335     3.88612     2.83001
 Zero-point vibrational energy     297453.3 (Joules/Mol)
                                   71.09305 (Kcal/Mol)
 Warning -- explicit consideration of  33 degrees of freedom as
           vibrations may cause significant error
 Identified internal rotation modes:
    1   2
 Vibrational temperatures:    163.88   262.82   387.81   534.48   593.46
          (Kelvin)            783.51   947.76  1111.58  1158.79  1325.39
                             1353.17  1391.95  1467.65  1488.25  1537.80
                             1588.72  1826.55  1925.10  2046.50  2085.19
                             2112.39  2148.99  2170.98  2437.37  2476.58
                             4359.79  4434.08  4502.15  4507.14  4542.21
                             4545.33  4665.25  4668.23

 Zero-point correction=                           0.113294 (Hartree/Particle)
 Thermal correction to Energy=                    0.361276
 Thermal correction to Enthalpy=                  0.370777
 Thermal correction to Gibbs Free Energy=        -0.537625
 Sum of electronic and zero-point Energies=           -195.204335
 Sum of electronic and thermal Energies=              -194.956353
 Sum of electronic and thermal Enthalpies=            -194.946852
 Sum of electronic and thermal Free Energies=         -195.855254

                     E (Thermal)             CV                S
                      KCal/Mol        Cal/Mol-Kelvin    Cal/Mol-Kelvin
 Total                  226.704             67.733            190.010
 Corrected for
 internal rot.          223.914             66.001            189.085
 Electronic               0.000              0.000              0.000
 Translational            8.942              2.981             50.067
 Rotational               8.942              2.981             32.486
 Vibrational            208.819             61.771            107.457
 Vibration     1          5.963              1.987              7.765
 Vibration     2          5.965              1.986              6.826
 Vibration     3          5.970              1.984              6.054
 Vibration     4          5.977              1.982              5.418
 Vibration     5          5.981              1.981              5.211
 Vibration     6          5.995              1.976              4.661
 Vibration     7          6.011              1.971              4.285
 Vibration     8          6.030              1.965              3.971
 Vibration     9          6.036              1.963              3.890
 Vibration    10          6.058              1.955              3.627
 Vibration    11          6.062              1.954              3.586
 Vibration    12          6.068              1.952              3.531
 Vibration    13          6.080              1.948              3.428
 Vibration    14          6.083              1.947              3.401
 Vibration    15          6.092              1.944              3.337
 Vibration    16          6.100              1.941              3.273
 Vibration    17          6.145              1.927              3.004
 Vibration    18          6.165              1.920              2.903
 Vibration    19          6.191              1.912              2.785
 Vibration    20          6.200              1.909              2.750
 Vibration    21          6.206              1.907              2.725
 Vibration    22          6.214              1.904              2.692
 Vibration    23          6.220              1.903              2.673
 Vibration    24          6.286              1.881              2.454
 Vibration    25          6.296              1.878              2.424
 Vibration    26          6.976              1.672              1.410
 Vibration    27          7.009              1.662              1.382
 Vibration    28          7.041              1.653              1.357
 Vibration    29          7.043              1.652              1.355
 Vibration    30          7.059              1.647              1.342
 Vibration    31          7.061              1.647              1.341
 Vibration    32          7.117              1.631              1.299
 Vibration    33          7.119              1.630              1.298

 Normal termination of Gaussian 16 at Mon Nov  7 12:49:50 2022.
