 Gaussian 16, Revision C.01,

 ----------------------------------------------------------------------
 # opt freq=hinderedrotor B3LYP/6-31g(d,p) symm=veryloose press=0.987 i
 nt=superfine
 ----------------------------------------------------------------------

 ------------
 cis-C=CC=C_1
 ------------
 Symbolic Z-matrix:
 Charge =  0 Multiplicity = 1

 SCF Done:  E(RB3LYP) =  -155.995430174     A.U. after   11 cycles
 SCF Done:  E(RB3LYP) =  -155.995719250     A.U. after   10 cycles
 SCF Done:  E(RB3LYP) =  -155.995781939     A.U. after    9 cycles
 SCF Done:  E(RB3LYP) =  -155.995314301     A.U. after   12 cycles
 SCF Done:  E(RB3LYP) =  -155.996024422     A.U. after   10 cycles
 SCF Done:  E(RB3LYP) =  -155.996041459     A.U. after    8 cycles
 SCF Done:  E(RB3LYP) =  -155.996046280     A.U. after    9 cycles
 SCF Done:  E(RB3LYP) =  -155.996046865     A.U. after    7 cycles
 Optimization completed.
    -- Stationary point found.
 Normal termination of Gaussian 16 at Mon Nov  7 09:16:36 2022.

 ----------------------------------------------------------------------
 #N Geom=AllCheck Guess=TCheck SCRF=Check GenChk RB3LYP/6-31G(d,p) Freq
 ----------------------------------------------------------------------

 Structure from the checkpoint file:  "cis-C=CC=C.chk"
 ------------
 cis-C=CC=C_1
 ------------
 Charge =  0 Multiplicity = 1

 SCF Done:  E(RB3LYP) =  -155.996046865     A.U. after    1 cycles

 The electronic state is 1-A.
 Alpha  occ. eigenvalues --  -10.19228 -10.19197 -10.18248 -10.18248  -0.79958
 Alpha  occ. eigenvalues --   -0.72423  -0.61546  -0.52680  -0.48573  -0.43274
 Alpha  occ. eigenvalues --   -0.42030  -0.36539  -0.34529  -0.30689  -0.23189
 Alpha virt. eigenvalues --   -0.02372   0.07672   0.10972   0.12636   0.15087
 Alpha virt. eigenvalues --    0.17888   0.19146   0.21276   0.31319   0.33811
 Alpha virt. eigenvalues --    0.40525   0.47180   0.53286   0.53614   0.57419

 Mulliken charges:
               1
     1  C   -0.233972
     2  C   -0.053164
     3  C   -0.053164
     4  C   -0.233972
     5  H    0.099930
     6  H    0.099581
     7  H    0.087626
     8  H    0.087626
     9  H    0.099930
    10  H    0.099581
 Sum of Mulliken charges =  -0.00000

 Dipole moment (field-independent basis, Debye):
    X=             -0.0000    Y=              0.0000    Z=              0.1165  Tot=              0.1165
 Quadrupole moment (field-independent basis, Debye-Ang):
   XX=            -26.9070   YY=            -23.4294   ZZ=            -22.8334
   XY=              1.4975   XZ=             -0.0000   YZ=             -0.0000

  Exact polarizability:      20.702       9.400      58.875      -0.000      -0.000      45.109
 Approx polarizability:      28.368      11.814      85.736       0.000       0.000      71.298

 Optimization completed.
    -- Stationary point found.
 Normal termination of Gaussian 16 at Mon Nov  7 09:16:58 2022.

 ----------------------------------------------------------------------
 # freq=(readfc,hinderedrotor) temp=200 press=0.987 geom=allcheck guess
 =read
 ----------------------------------------------------------------------

 Structure from the checkpoint file:  "cis-C=CC=C.chk"
 ------------
 cis-C=CC=C_1
 ------------
 Charge =  0 Multiplicity = 1

 Normal termination of Gaussian 16 at Mon Nov  7 09:16:59 2022.

 ----------------------------------------------------------------------
 # freq=(readfc,hinderedrotor) temp=250 press=0.987 geom=allcheck guess
 =read
 ----------------------------------------------------------------------

 Structure from the checkpoint file:  "cis-C=CC=C.chk"
 ------------
 cis-C=CC=C_1
 ------------
 Charge =  0 Multiplicity = 1

 Normal termination of Gaussian 16 at Mon Nov  7 09:16:59 2022.

 ----------------------------------------------------------------------
 # freq=(readfc,hinderedrotor) temp=300 press=0.987 geom=allcheck guess
 =read
 ----------------------------------------------------------------------

 Structure from the checkpoint file:  "cis-C=CC=C.chk"
 ------------
 cis-C=CC=C_1
 ------------
 Charge =  0 Multiplicity = 1

 ----------------------------------------------------------------------
 # freq=(readfc,hinderedrotor) temp=350 press=0.987 geom=allcheck guess
 =read
 ----------------------------------------------------------------------

 Structure from the checkpoint file:  "cis-C=CC=C.chk"
 ------------
 cis-C=CC=C_1
 ------------
 Charge =  0 Multiplicity = 1

 Normal termination of Gaussian 16 at Mon Nov  7 09:17:19 2022.
 Normal termination of Gaussian 16 at Mon Nov  7 09:17:20 2022.
 Normal termination of Gaussian 16 at Mon Nov  7 09:17:20 2022.
 Gaussian 16:  ES64L-G16RevC.01  3-Jul-2019

                         Standard orientation:
 ---------------------------------------------------------------------
 Center     Atomic      Atomic             Coordinates (Angstroms)
 Number     Number       Type             X           Y           Z
 ---------------------------------------------------------------------
      1          6           0        0.251279    1.523493   -0.493574
      2          6           0        0.251279    0.690693    0.554436
      3          6           0       -0.251279   -0.690693    0.554436
      4          6           0       -0.251279   -1.523493   -0.493574
      5          1           0        0.659953    2.526247   -0.419972
      6          1           0       -0.167414    1.233918   -1.453458
      7          1           0        0.633879    1.053865    1.508257
      8          1           0       -0.633879   -1.053865    1.508257
      9          1           0       -0.659953   -2.526247   -0.419972
     10          1           0        0.167414   -1.233918   -1.453458
 ---------------------------------------------------------------------

                      1                      2                      3
                     ?A                     ?B                     ?C
 Frequencies --    158.5360               275.3442               478.7909
 Red. masses --      1.5247                 2.5155                 1.3429
 Frc consts  --      0.0226                 0.1124                 0.1814
 IR Inten    --      0.1460                 0.0035                 9.9868

                      4                      5                      6
                     ?D                     ?E                     ?F
 Frequencies --    613.7793               758.0996               890.3385
 Red. masses --      1.7393                 1.6583                 2.0571
 Frc consts  --      0.3861                 0.5615                 0.9607
 IR Inten    --      5.1547                 2.7247                 0.3723

                      7                      8                      9
                     ?G                     ?C                     ?H
 Frequencies --    937.7752               938.5166              1024.3803
 Red. masses --      1.3950                 1.3582                 1.1145
 Frc consts  --      0.7228                 0.7048                 0.6891
 IR Inten    --      3.6525                66.7023                 1.1295

                     10                     11                     12
                     ?I                     ?J                     ?K
 Frequencies --   1036.4096              1071.5624              1109.6197
 Red. masses --      1.0866                 1.4689                 1.5930
 Frc consts  --      0.6877                 0.9937                 1.1556
 IR Inten    --     24.3016                 0.0125                 5.9119

                     13                     14                     15
                     ?L                     ?M                     ?N
 Frequencies --   1316.1842              1350.6170              1446.9585
 Red. masses --      1.2710                 1.2928                 1.1581
 Frc consts  --      1.2972                 1.3895                 1.4285
 IR Inten    --      0.3630                 0.1179                 1.3675

                     16                     17                     18
                     ?M                     ?N                     ?N
 Frequencies --   1475.5204              1692.2397              1715.4525
 Red. masses --      1.2677                 4.8923                 3.7829
 Frc consts  --      1.6261                 8.2545                 6.5589
 IR Inten    --      6.9423                 1.7010                 2.1428

                     19                     20                     21
                     ?I                     ?H                     ?I
 Frequencies --   3138.3386              3149.7800              3157.3729
 Red. masses --      1.0835                 1.0739                 1.0640
 Frc consts  --      6.2875                 6.2772                 6.2492
 IR Inten    --     11.8992                32.5182                 6.0033

                     22                     23                     24
                     ?H                     ?I                     ?H
 Frequencies --   3162.2836              3243.3616              3245.4302
 Red. masses --      1.0756                 1.1161                 1.1165
 Frc consts  --      6.3373                 6.9177                 6.9285
 IR Inten    --      0.2230                20.9630                 7.9650

 - Thermochemistry -
 -------------------
 Temperature  3000.000 Kelvin.  Pressure   0.98700 Atm.
 Atom     1 has atomic number  6 and mass  12.00000

 Molecular mass:    54.04695 amu.
 Principal axes and moments of inertia in atomic units:
                           1         2         3
     Eigenvalues --    83.89671 321.75469 397.93861
           X            0.20498   0.00000   0.97877
           Y            0.97877   0.00000  -0.20498
           Z            0.00000   1.00000   0.00000
 This molecule is an asymmetric top.
 Rotational symmetry number  2.
 Rotational temperatures (Kelvin)      1.03239     0.26919     0.21766
 Rotational constants (GHZ):          21.51147     5.60906     4.53523
 Zero-point vibrational energy     223622.1 (Joules/Mol)
                                   53.44696 (Kcal/Mol)
 Warning -- explicit consideration of  24 degrees of freedom as
           vibrations may cause significant error
 Identified internal rotation modes:
   31
 Vibrational temperatures:    228.10   396.16   688.87   883.09  1090.74
          (Kelvin)           1281.00  1349.25  1350.32  1473.85  1491.16
                             1541.74  1596.50  1893.70  1943.24  2081.85
                             2122.94  2434.76  2468.15  4515.37  4531.83
                             4542.76  4549.82  4666.47  4669.45

 Zero-point correction=                           0.085173 (Hartree/Particle)
 Thermal correction to Energy=                    0.271147
 Thermal correction to Enthalpy=                  0.280648
 Thermal correction to Gibbs Free Energy=        -0.454054
 Sum of electronic and zero-point Energies=           -155.910874
 Sum of electronic and thermal Energies=              -155.724900
 Sum of electronic and thermal Enthalpies=            -155.715399
 Sum of electronic and thermal Free Energies=         -156.450101

                     E (Thermal)             CV                S
                      KCal/Mol        Cal/Mol-Kelvin    Cal/Mol-Kelvin
 Total                  170.148             50.766            153.677
 Corrected for
 internal rot.          169.260             49.960            153.621
 Electronic               0.000              0.000              0.000
 Translational            8.942              2.981             49.380
 Rotational               8.942              2.981             29.394
 Vibrational            152.263             44.805             74.904
 Vibration     1          5.964              1.986              7.108
 Vibration     2          5.970              1.984              6.012
 Vibration     3          5.988              1.978              4.915
 Vibration     4          6.005              1.973              4.425
 Vibration     5          6.027              1.965              4.009
 Vibration     6          6.052              1.957              3.693
 Vibration     7          6.062              1.954              3.592
 Vibration     8          6.062              1.954              3.590
 Vibration     9          6.081              1.948              3.419
 Vibration    10          6.084              1.947              3.397
 Vibration    11          6.092              1.944              3.332
 Vibration    12          6.102              1.941              3.264
 Vibration    13          6.158              1.923              2.934
 Vibration    14          6.169              1.919              2.885
 Vibration    15          6.199              1.909              2.753
 Vibration    16          6.208              1.906              2.715
 Vibration    17          6.285              1.882              2.456
 Vibration    18          6.294              1.879              2.430
 Vibration    19          7.047              1.651              1.352
 Vibration    20          7.054              1.649              1.346
 Vibration    21          7.059              1.647              1.342
 Vibration    22          7.063              1.646              1.340
 Vibration    23          7.118              1.631              1.298
 Vibration    24          7.119              1.630              1.297

 Normal termination of Gaussian 16 at Mon Nov  7 09:17:20 2022.
