 Gaussian 16, Revision C.01,

 --------------------------------------------------------------------
 # opt freq=hinderedrotor B3LYP/6-31g(d,p) symm=veryloose press=0.987
 --------------------------------------------------------------------

 --------------
 cis-CC=C(C)C_1
 --------------
 Symbolic Z-matrix:
 Charge =  0 Multiplicity = 1

 SCF Done:  E(RB3LYP) =  -196.538616634     A.U. after   13 cycles
 SCF Done:  E(RB3LYP) =  -196.550015785     A.U. after   11 cycles
 SCF Done:  E(RB3LYP) =  -196.550499600     A.U. after   10 cycles
 SCF Done:  E(RB3LYP) =  -196.550535218     A.U. after    9 cycles
 SCF Done:  E(RB3LYP) =  -196.550592298     A.U. after    9 cycles
 SCF Done:  E(RB3LYP) =  -196.515866528     A.U. after   13 cycles
 SCF Done:  E(RB3LYP) =  -196.551723027     A.U. after   11 cycles
 SCF Done:  E(RB3LYP) =  -196.553914660     A.U. after   12 cycles
 SCF Done:  E(RB3LYP) =  -196.554755855     A.U. after   10 cycles
 SCF Done:  E(RB3LYP) =  -196.555084651     A.U. after   10 cycles
 SCF Done:  E(RB3LYP) =  -196.557568816     A.U. after   10 cycles
 SCF Done:  E(RB3LYP) =  -196.557720477     A.U. after   10 cycles
 SCF Done:  E(RB3LYP) =  -196.557735179     A.U. after   10 cycles
 SCF Done:  E(RB3LYP) =  -196.557766968     A.U. after    9 cycles
 SCF Done:  E(RB3LYP) =  -196.557769735     A.U. after    7 cycles
 SCF Done:  E(RB3LYP) =  -196.557771984     A.U. after    8 cycles
 SCF Done:  E(RB3LYP) =  -196.557772420     A.U. after    7 cycles
 SCF Done:  E(RB3LYP) =  -196.557773044     A.U. after    7 cycles
 SCF Done:  E(RB3LYP) =  -196.557773184     A.U. after    7 cycles
 Optimization completed.
    -- Stationary point found.
 Normal termination of Gaussian 16 at Mon Nov  7 13:10:36 2022.

 ----------------------------------------------------------------------
 #N Geom=AllCheck Guess=TCheck SCRF=Check GenChk RB3LYP/6-31G(d,p) Freq
 ----------------------------------------------------------------------

 Structure from the checkpoint file:  "cis-CC=C(C)C.chk"
 --------------
 cis-CC=C(C)C_1
 --------------
 Charge =  0 Multiplicity = 1

 SCF Done:  E(RB3LYP) =  -196.557773151     A.U. after    6 cycles

 The electronic state is 1-A'.
 Alpha  occ. eigenvalues --  -10.18393 -10.17531 -10.17526 -10.17394 -10.17225
 Alpha  occ. eigenvalues --   -0.80326  -0.72725  -0.68549  -0.63049  -0.50672
 Alpha  occ. eigenvalues --   -0.45500  -0.42782  -0.42583  -0.39805  -0.37797
 Alpha  occ. eigenvalues --   -0.37640  -0.36303  -0.35048  -0.32278  -0.22549
 Alpha virt. eigenvalues --    0.03773   0.09834   0.12293   0.13172   0.15287
 Alpha virt. eigenvalues --    0.16640   0.17049   0.18151   0.19881   0.20381
 Alpha virt. eigenvalues --    0.22895   0.24186   0.25408   0.33375   0.45031

 Mulliken charges:
               1
     1  C   -0.350869
     2  C   -0.107318
     3  C    0.138418
     4  C   -0.365348
     5  C   -0.360037
     6  H    0.105010
     7  H    0.112700
     8  H    0.112700
     9  H    0.067872
    10  H    0.110529
    11  H    0.110529
    12  H    0.105988
    13  H    0.104930
    14  H    0.107447
    15  H    0.107447
 Sum of Mulliken charges =   0.00000

 Dipole moment (field-independent basis, Debye):
    X=             -0.1763    Y=              0.0777    Z=              0.0000  Tot=              0.1926
 Quadrupole moment (field-independent basis, Debye-Ang):
   XX=            -32.2678   YY=            -31.7731   ZZ=            -33.9582
   XY=             -0.2488   XZ=             -0.0000   YZ=             -0.0000

  Exact polarizability:      54.262      -5.065      72.540       0.000       0.000      39.103
 Approx polarizability:      73.853     -12.587      98.693      -0.000       0.000      55.134

 Optimization completed.
    -- Stationary point found.
 Normal termination of Gaussian 16 at Mon Nov  7 13:11:07 2022.

 ----------------------------------------------------------------------
 # freq=(readfc,hinderedrotor) temp=200 press=0.987 geom=allcheck guess
 =read
 ----------------------------------------------------------------------

 Structure from the checkpoint file:  "cis-CC=C(C)C.chk"
 --------------
 cis-CC=C(C)C_1
 --------------
 Charge =  0 Multiplicity = 1

 Normal termination of Gaussian 16 at Mon Nov  7 13:11:08 2022.

 ----------------------------------------------------------------------
 # freq=(readfc,hinderedrotor) temp=250 press=0.987 geom=allcheck guess
 =read
 ----------------------------------------------------------------------

 Structure from the checkpoint file:  "cis-CC=C(C)C.chk"
 --------------
 cis-CC=C(C)C_1
 --------------
 Charge =  0 Multiplicity = 1

 Normal termination of Gaussian 16 at Mon Nov  7 13:11:08 2022.

 ----------------------------------------------------------------------
 # freq=(readfc,hinderedrotor) temp=300 press=0.987 geom=allcheck guess
 =read
 ----------------------------------------------------------------------

 Structure from the checkpoint file:  "cis-CC=C(C)C.chk"
 --------------
 cis-CC=C(C)C_1
 --------------
 Charge =  0 Multiplicity = 1

 ----------------------------------------------------------------------
 # freq=(readfc,hinderedrotor) temp=350 press=0.987 geom=allcheck guess
 =read
 ----------------------------------------------------------------------

 Structure from the checkpoint file:  "cis-CC=C(C)C.chk"
 --------------
 cis-CC=C(C)C_1
 --------------
 Charge =  0 Multiplicity = 1

 Normal termination of Gaussian 16 at Mon Nov  7 13:11:28 2022.
 Normal termination of Gaussian 16 at Mon Nov  7 13:11:29 2022.
 Normal termination of Gaussian 16 at Mon Nov  7 13:11:29 2022.
 Gaussian 16:  ES64L-G16RevC.01  3-Jul-2019

                         Standard orientation:
 ---------------------------------------------------------------------
 Center     Atomic      Atomic             Coordinates (Angstroms)
 Number     Number       Type             X           Y           Z
 ---------------------------------------------------------------------
      1          6           0        0.268896   -2.097857   -0.000000
      2          6           0        0.736369   -0.670065   -0.000000
      3          6           0        0.000000    0.451399    0.000000
      4          6           0       -1.508226    0.492982    0.000000
      5          6           0        0.661530    1.809037   -0.000000
      6          1           0       -0.818990   -2.195502    0.000000
      7          1           0        0.649800   -2.633573    0.879215
      8          1           0        0.649800   -2.633573   -0.879215
      9          1           0        1.820554   -0.549971   -0.000000
     10          1           0       -1.880285    1.036338   -0.878615
     11          1           0       -1.880285    1.036338    0.878615
     12          1           0       -1.968915   -0.496282    0.000000
     13          1           0        1.752287    1.732020   -0.000000
     14          1           0        0.362313    2.395613    0.879047
     15          1           0        0.362313    2.395613   -0.879047
 ---------------------------------------------------------------------

                      1                      2                      3
                     A"                     A"                     ?A
 Frequencies --    126.5446               150.6739               185.6498
 Red. masses --      1.0373                 1.0305                 1.2134
 Frc consts  --      0.0098                 0.0138                 0.0246
 IR Inten    --      0.5903                 0.1053                 1.2042

                      4                      5                      6
                     ?B                     ?C                     ?D
 Frequencies --    265.2220               297.6043               384.3013
 Red. masses --      1.7616                 2.6151                 2.2030
 Frc consts  --      0.0730                 0.1365                 0.1917
 IR Inten    --      1.2435                 0.2578                 0.3906

                      7                      8                      9
                     ?E                     ?F                     ?G
 Frequencies --    453.1302               527.0366               773.7287
 Red. masses --      2.2385                 2.7875                 2.8752
 Frc consts  --      0.2708                 0.4562                 1.0141
 IR Inten    --      1.9919                 2.1834                 1.6256

                     10                     11                     12
                     ?H                     ?I                     ?I
 Frequencies --    832.8450               963.7666               973.9099
 Red. masses --      1.1291                 1.5390                 1.5297
 Frc consts  --      0.4614                 0.8422                 0.8549
 IR Inten    --      9.9932                 1.7623                 2.0060

                     13                     14                     15
                     ?A                     ?J                     ?K
 Frequencies --   1022.1509              1066.0140              1073.3342
 Red. masses --      1.2392                 1.5242                 1.7114
 Frc consts  --      0.7628                 1.0205                 1.1616
 IR Inten    --      1.9099                 0.6428                 5.7880

                     16                     17                     18
                     ?L                     ?M                     ?N
 Frequencies --   1109.2037              1136.8698              1241.0579
 Red. masses --      1.6403                 2.0115                 2.5331
 Frc consts  --      1.1890                 1.5318                 2.2987
 IR Inten    --      0.4194                 9.7591                 5.0216

                     19                     20                     21
                     ?N                     ?N                     ?N
 Frequencies --   1379.9341              1424.8228              1427.9527
 Red. masses --      1.2698                 1.3161                 1.3880
 Frc consts  --      1.4247                 1.5742                 1.6675
 IR Inten    --      4.1008                 4.3812                 0.6559

                     22                     23                     24
                     ?N                     A"                     A'
 Frequencies --   1437.5237              1485.4726              1495.7068
 Red. masses --      1.2247                 1.0459                 1.0460
 Frc consts  --      1.4911                 1.3597                 1.3788
 IR Inten    --      0.6571                 0.5270                 1.0878

                     25                     26                     27
                     A"                     A"                     ?N
 Frequencies --   1496.7542              1504.7009              1511.3929
 Red. masses --      1.0444                 1.0420                 1.0780
 Frc consts  --      1.3785                 1.3900                 1.4509
 IR Inten    --      1.5998                14.7199                 4.0342

                     28                     29                     30
                     ?N                     ?N                     A'
 Frequencies --   1512.0649              1757.4449              3017.6735
 Red. masses --      1.0566                 6.2139                 1.0389
 Frc consts  --      1.4233                11.3078                 5.5739
 IR Inten    --      6.0063                 1.0097                27.0627

                     31                     32                     33
                     A'                     A'                     ?H
 Frequencies --   3025.1926              3028.0275              3064.3635
 Red. masses --      1.0403                 1.0414                 1.0998
 Frc consts  --      5.6092                 5.6261                 6.0850
 IR Inten    --     78.6954                 8.1065                14.5296

                     34                     35                     36
                     ?H                     ?H                     ?N
 Frequencies --   3069.3872              3070.1389              3118.8192
 Red. masses --      1.0994                 1.0999                 1.0983
 Frc consts  --      6.1026                 6.1081                 6.2942
 IR Inten    --     25.0103                45.8818                16.7763

                     37                     38                     39
                     ?N                     ?N                     ?N
 Frequencies --   3123.1112              3136.8586              3145.1478
 Red. masses --      1.0936                 1.0931                 1.0943
 Frc consts  --      6.2847                 6.3372                 6.3776
 IR Inten    --      4.4046                32.2613                49.7470

 - Thermochemistry -
 -------------------
 Temperature  3000.000 Kelvin.  Pressure   0.98700 Atm.
 Atom     1 has atomic number  6 and mass  12.00000

 Molecular mass:    70.07825 amu.
 Principal axes and moments of inertia in atomic units:
                           1         2         3
     Eigenvalues --   225.12516 515.84572 707.60507
           X           -0.09914   0.99507   0.00000
           Y            0.99507   0.09914   0.00000
           Z           -0.00000   0.00000   1.00000
 This molecule is an asymmetric top.
 Rotational symmetry number  1.
 Rotational temperatures (Kelvin)      0.38474     0.16791     0.12240
 Rotational constants (GHZ):           8.01661     3.49861     2.55049
 Zero-point vibrational energy     357776.3 (Joules/Mol)
                                   85.51060 (Kcal/Mol)
 Warning -- explicit consideration of  39 degrees of freedom as
           vibrations may cause significant error
 Identified internal rotation modes:
   46   2   3
 Vibrational temperatures:    182.07   216.79   267.11   381.60   428.19
          (Kelvin)            552.92   651.95   758.29  1113.22  1198.28
                             1386.65  1401.24  1470.65  1533.76  1544.29
                             1595.90  1635.70  1785.61  1985.42  2050.00
                             2054.51  2068.28  2137.26  2151.99  2153.50
                             2164.93  2174.56  2175.52  2528.57  4341.76
                             4352.58  4356.66  4408.94  4416.16  4417.25
                             4487.29  4493.46  4513.24  4525.17

 Zero-point correction=                           0.136270 (Hartree/Particle)
 Thermal correction to Energy=                    0.422220
 Thermal correction to Enthalpy=                  0.431720
 Thermal correction to Gibbs Free Energy=        -0.569898
 Sum of electronic and zero-point Energies=           -196.421503
 Sum of electronic and thermal Energies=              -196.135554
 Sum of electronic and thermal Enthalpies=            -196.126053
 Sum of electronic and thermal Free Energies=         -197.127671

                     E (Thermal)             CV                S
                      KCal/Mol        Cal/Mol-Kelvin    Cal/Mol-Kelvin
 Total                  264.947             78.867            209.508
 Corrected for
 internal rot.          258.248             75.950            205.840
 Electronic               0.000              0.000              0.000
 Translational            8.942              2.981             50.154
 Rotational               8.942              2.981             32.793
 Vibrational            247.062             72.905            126.562
 Vibration     1          5.963              1.987              7.556
 Vibration     2          5.964              1.986              7.209
 Vibration     3          5.966              1.986              6.794
 Vibration     4          5.970              1.985              6.086
 Vibration     5          5.972              1.984              5.858
 Vibration     6          5.978              1.982              5.351
 Vibration     7          5.985              1.979              5.024
 Vibration     8          5.993              1.977              4.725
 Vibration     9          6.030              1.965              3.969
 Vibration    10          6.041              1.961              3.824
 Vibration    11          6.067              1.952              3.538
 Vibration    12          6.070              1.951              3.518
 Vibration    13          6.081              1.948              3.424
 Vibration    14          6.091              1.944              3.342
 Vibration    15          6.093              1.944              3.329
 Vibration    16          6.102              1.941              3.265
 Vibration    17          6.109              1.939              3.217
 Vibration    18          6.137              1.930              3.047
 Vibration    19          6.178              1.916              2.843
 Vibration    20          6.192              1.912              2.782
 Vibration    21          6.193              1.911              2.778
 Vibration    22          6.196              1.910              2.765
 Vibration    23          6.212              1.905              2.703
 Vibration    24          6.215              1.904              2.689
 Vibration    25          6.215              1.904              2.688
 Vibration    26          6.218              1.903              2.678
 Vibration    27          6.220              1.902              2.670
 Vibration    28          6.221              1.902              2.669
 Vibration    29          6.310              1.874              2.385
 Vibration    30          6.968              1.674              1.417
 Vibration    31          6.972              1.672              1.413
 Vibration    32          6.974              1.672              1.412
 Vibration    33          6.998              1.665              1.392
 Vibration    34          7.001              1.664              1.389
 Vibration    35          7.002              1.664              1.389
 Vibration    36          7.034              1.655              1.363
 Vibration    37          7.037              1.654              1.360
 Vibration    38          7.046              1.651              1.353
 Vibration    39          7.051              1.650              1.349

 Normal termination of Gaussian 16 at Mon Nov  7 13:11:29 2022.
