 Gaussian 16, Revision C.01,

 ----------------------------------------------------------------------
 # opt freq=hinderedrotor M062X/6-311++g(d,p) symm=veryloose press=0.98
 7 int=superfine
 ----------------------------------------------------------------------

 ---------
 [CH2]-T_1
 ---------
 Symbolic Z-matrix:
 Charge =  0 Multiplicity = 1

 SCF Done:  E(RM062X) =  -39.0817758430     A.U. after    9 cycles
 SCF Done:  E(RM062X) =  -39.0990029925     A.U. after   10 cycles
 SCF Done:  E(RM062X) =  -39.1160848488     A.U. after   10 cycles
 SCF Done:  E(RM062X) =  -39.1178280854     A.U. after    9 cycles
 SCF Done:  E(RM062X) =  -39.1189541816     A.U. after    8 cycles
 SCF Done:  E(RM062X) =  -39.1189581618     A.U. after    7 cycles
 Optimization completed.
    -- Stationary point found.

 1\1\GINC-LOCALHOST\FOpt\RM062X\6-311++G(d,p)\C1H2\ROOT\26-Jul-2022\0\\
 # opt freq=hinderedrotor M062X/6-311++g(d,p) symm=veryloose press=0.98
 7 int=superfine\\[CH2]-T_1\\0,1\C,-0.3278288917,0.,0.\H,0.3724144458,0
 .,-0.8605259965\H,0.3724144458,0.,0.8605259965\\Version=ES64L-G16RevC.
 01\State=1-A1\HF=-39.1189582\RMSD=4.751e-09\RMSF=4.344e-05\Dipole=0.81
 84299,0.,0.\Quadrupole=-1.4702479,1.0344267,0.4358211,0.,0.,0.\PG=C02V
  [C2(C1),SGV(H2)]\\@
 The archive entry for this job was punched.

 Normal termination of Gaussian 16 at Tue Jul 26 02:14:31 2022.

 ----------------------------------------------------------------------
 #N Geom=AllCheck Guess=TCheck SCRF=Check GenChk RM062X/6-311++G(d,p) F
 req
 ----------------------------------------------------------------------

 Structure from the checkpoint file:  "[CH2]-T.chk"
 ---------
 [CH2]-T_1
 ---------
 Charge =  0 Multiplicity = 1

 SCF Done:  E(RM062X) =  -39.1189581618     A.U. after    1 cycles

 The electronic state is 1-A1.
 Alpha  occ. eigenvalues --  -10.60971  -0.75858  -0.47703  -0.31601
 Alpha virt. eigenvalues --   -0.08392   0.00142   0.03435   0.08413   0.08568
 Alpha virt. eigenvalues --    0.11065   0.13226   0.19368   0.21110   0.44471
 Alpha virt. eigenvalues --    0.52076   0.58624   0.63982   0.68856   0.78413

 Mulliken charges:
               1
     1  C   -0.209274
     2  H    0.104637
     3  H    0.104637
 Sum of Mulliken charges =  -0.00000

 Dipole moment (field-independent basis, Debye):
    X=             -0.0000    Y=              0.0000    Z=             -2.0802  Tot=              2.0802
 Quadrupole moment (field-independent basis, Debye-Ang):
   XX=             -6.4402   YY=             -7.2454   ZZ=             -9.8091
   XY=              0.0000   XZ=              0.0000   YZ=             -0.0000

  Exact polarizability:       9.764       0.000      15.841       0.000       0.000      14.079
 Approx polarizability:       9.591       0.000      15.811       0.000       0.000      12.521

 Optimization completed.
    -- Stationary point found.

 1\1\GINC-LOCALHOST\Freq\RM062X\6-311++G(d,p)\C1H2\ROOT\26-Jul-2022\0\\
 #N Geom=AllCheck Guess=TCheck SCRF=Check GenChk RM062X/6-311++G(d,p) F
 req\\[CH2]-T_1\\0,1\C,-0.3278288917,0.,0.\H,0.3724144458,0.,-0.8605259
 965\H,0.3724144458,0.,0.8605259965\\Version=ES64L-G16RevC.01\State=1-A
 1\HF=-39.1189582\RMSD=7.805e-10\RMSF=4.344e-05\ZeroPoint=0.0168205\The
 rmal=0.0196604\ETot=-39.0992978\HTot=-39.0983536\GTot=-39.1198298\Dipo
 le=0.8184299,0.,0.\DipoleDeriv=0.2389079,0.,0.,0.,-0.616436,0.,0.,0.,0
 .0552219,-0.119454,0.,0.2743022,0.,0.308218,0.,0.1563161,0.,-0.027611,

 Normal termination of Gaussian 16 at Tue Jul 26 02:14:35 2022.

 ----------------------------------------------------------------------
 # freq=(readfc,hinderedrotor) temp=200 press=0.987 geom=allcheck guess
 =read
 ----------------------------------------------------------------------

 Structure from the checkpoint file:  "[CH2]-T.chk"
 ---------
 [CH2]-T_1
 ---------
 Charge =  0 Multiplicity = 1

 Normal termination of Gaussian 16 at Tue Jul 26 02:14:35 2022.

 ----------------------------------------------------------------------
 # freq=(readfc,hinderedrotor) temp=250 press=0.987 geom=allcheck guess
 =read
 ----------------------------------------------------------------------

 Structure from the checkpoint file:  "[CH2]-T.chk"
 ---------
 [CH2]-T_1
 ---------
 Charge =  0 Multiplicity = 1

 Normal termination of Gaussian 16 at Tue Jul 26 02:14:36 2022.

 Structure from the checkpoint file:  "[CH2]-T.chk"
 ---------
 [CH2]-T_1
 ---------
 Charge =  0 Multiplicity = 1

 Structure from the checkpoint file:  "[CH2]-T.chk"
 ---------
 [CH2]-T_1
 ---------
 Charge =  0 Multiplicity = 1

 Normal termination of Gaussian 16 at Tue Jul 26 02:15:00 2022.
 Normal termination of Gaussian 16 at Tue Jul 26 02:15:01 2022.
 Normal termination of Gaussian 16 at Tue Jul 26 02:15:01 2022.
 Gaussian 16:  ES64L-G16RevC.01  3-Jul-2019

                         Standard orientation:
 ---------------------------------------------------------------------
 Center     Atomic      Atomic             Coordinates (Angstroms)
 Number     Number       Type             X           Y           Z
 ---------------------------------------------------------------------
      1          6           0       -0.000000    0.000000    0.175061
      2          1           0       -0.000000    0.860526   -0.525183
      3          1           0       -0.000000   -0.860526   -0.525183
 ---------------------------------------------------------------------

                      1                      2                      3
                     ?A                     ?A                     ?B
 Frequencies --   1403.0778              2958.4413              3021.8066
 Red. masses --      1.1008                 1.0578                 1.1003
 Frc consts  --      1.2768                 5.4548                 5.9198
 IR Inten    --      0.1853                79.3292                68.9849

 - Thermochemistry -
 -------------------
 Temperature  5000.000 Kelvin.  Pressure   0.98700 Atm.
 Atom     1 has atomic number  6 and mass  12.00000

 Molecular mass:    14.01565 amu.
 Principal axes and moments of inertia in atomic units:
                           1         2         3
     Eigenvalues --     3.02189   5.33017   8.35206
           X           -0.00000   0.00000   1.00000
           Y            1.00000   0.00000   0.00000
           Z           -0.00000   1.00000   0.00000
 This molecule is an asymmetric top.
 Rotational symmetry number  2.
 Rotational temperatures (Kelvin)     28.66216    16.24976    10.37037
 Rotational constants (GHZ):         597.22240   338.58996   216.08339
 Zero-point vibrational energy      44162.1 (Joules/Mol)
                                   10.55499 (Kcal/Mol)
 Warning -- explicit consideration of   3 degrees of freedom as
           vibrations may cause significant error
 Vibrational temperatures:   2018.72  4256.54  4347.71
          (Kelvin)

 Zero-point correction=                           0.016820 (Hartree/Particle)
 Thermal correction to Energy=                    0.097149
 Thermal correction to Enthalpy=                  0.112983
 Thermal correction to Gibbs Free Energy=        -0.493307
 Sum of electronic and zero-point Energies=            -39.102138
 Sum of electronic and thermal Energies=               -39.021809
 Sum of electronic and thermal Enthalpies=             -39.005975
 Sum of electronic and thermal Free Energies=          -39.612265

                     E (Thermal)             CV                S
                      KCal/Mol        Cal/Mol-Kelvin    Cal/Mol-Kelvin
 Total                   60.962             11.660             76.091
 Electronic               0.000              0.000              0.000
 Translational           14.904              2.981             47.895
 Rotational              14.904              2.981             19.701
 Vibrational             31.154              5.698              8.495
 Vibration     1         10.071              1.960              3.803
 Vibration     2         10.529              1.871              2.366
 Vibration     3         10.554              1.867              2.326

 Normal termination of Gaussian 16 at Tue Jul 26 02:15:02 2022.
