 Gaussian 16, Revision C.01,

 ----------------------------------------------------------------------
 # opt freq=hinderedrotor M062X/6-311++g(d,p) symm=veryloose press=0.98
 7
 ----------------------------------------------------------------------

 --------
 [H][H]_1
 --------
 Symbolic Z-matrix:
 Charge =  0 Multiplicity = 1

 SCF Done:  E(RM062X) =  -1.14002638381     A.U. after    5 cycles
 SCF Done:  E(RM062X) =  -1.16274981152     A.U. after    6 cycles
 SCF Done:  E(RM062X) =  -1.16835887858     A.U. after    6 cycles
 SCF Done:  E(RM062X) =  -1.16840207097     A.U. after    4 cycles
 Optimization completed.
    -- Stationary point found.
 Normal termination of Gaussian 16 at Mon Jul 25 13:49:13 2022.

 ----------------------------------------------------------------------
 #N Geom=AllCheck Guess=TCheck SCRF=Check GenChk RM062X/6-311++G(d,p) F
 req
 ----------------------------------------------------------------------

 Structure from the checkpoint file:  "[H][H].chk"
 --------
 [H][H]_1
 --------
 Charge =  0 Multiplicity = 1

 SCF Done:  E(RM062X) =  -1.16840207097     A.U. after    1 cycles

 The electronic state is 1-SGG.
 Alpha  occ. eigenvalues --   -0.49617
 Alpha virt. eigenvalues --    0.03270   0.03347   0.18603   0.38427   0.65785
 Alpha virt. eigenvalues --    1.25329   1.25329   1.66326   1.86789   1.86789
 Alpha virt. eigenvalues --    2.15654   2.59238   3.84716

 Mulliken charges:
               1
     1  H    0.000000
     2  H    0.000000
 Sum of Mulliken charges =   0.00000

 Dipole moment (field-independent basis, Debye):
    X=             -0.0000    Y=             -0.0000    Z=             -0.0000  Tot=              0.0000
 Quadrupole moment (field-independent basis, Debye-Ang):
   XX=             -2.0769   YY=             -2.0769   ZZ=             -1.5075
   XY=             -0.0000   XZ=             -0.0000   YZ=              0.0000

  Exact polarizability:       1.149       0.000       1.149      -0.000       0.000       6.765
 Approx polarizability:       1.012      -0.000       1.012      -0.000      -0.000       6.357

 Optimization completed.
    -- Stationary point found.
 Normal termination of Gaussian 16 at Mon Jul 25 13:49:15 2022.

 ----------------------------------------------------------------------
 # freq=(readfc,hinderedrotor) temp=200 press=0.987 geom=allcheck guess
 =read
 ----------------------------------------------------------------------

 Structure from the checkpoint file:  "[H][H].chk"
 --------
 [H][H]_1
 --------
 Charge =  0 Multiplicity = 1

 Normal termination of Gaussian 16 at Mon Jul 25 13:49:15 2022.

 ----------------------------------------------------------------------
 # freq=(readfc,hinderedrotor) temp=250 press=0.987 geom=allcheck guess
 =read
 ----------------------------------------------------------------------

 Structure from the checkpoint file:  "[H][H].chk"
 --------
 [H][H]_1
 --------
 Charge =  0 Multiplicity = 1

 Normal termination of Gaussian 16 at Mon Jul 25 13:49:16 2022.

 ----------------------------------------------------------------------
 # freq=(readfc,hinderedrotor) temp=300 press=0.987 geom=allcheck guess
 =read
 ----------------------------------------------------------------------

 Structure from the checkpoint file:  "[H][H].chk"
 --------
 [H][H]_1
 --------
 Charge =  0 Multiplicity = 1

 ----------------------------------------------------------------------
 # freq=(readfc,hinderedrotor) temp=350 press=0.987 geom=allcheck guess
 =read
 ----------------------------------------------------------------------

 Structure from the checkpoint file:  "[H][H].chk"
 --------
 [H][H]_1
 --------
 Charge =  0 Multiplicity = 1

 Normal termination of Gaussian 16 at Mon Jul 25 13:49:47 2022.
 Normal termination of Gaussian 16 at Mon Jul 25 13:49:47 2022.
 Normal termination of Gaussian 16 at Mon Jul 25 13:49:48 2022.
 Gaussian 16:  ES64L-G16RevC.01  3-Jul-2019

                         Standard orientation:
 ---------------------------------------------------------------------
 Center     Atomic      Atomic             Coordinates (Angstroms)
 Number     Number       Type             X           Y           Z
 ---------------------------------------------------------------------
      1          1           0        0.000000    0.000000    0.370290
      2          1           0        0.000000    0.000000   -0.370290
 ---------------------------------------------------------------------

                      1
                     SGG
 Frequencies --   4470.3310
 Red. masses --      1.0078
 Frc consts  --     11.8663
 IR Inten    --      0.0000

 - Thermochemistry -
 -------------------
 Temperature  5000.000 Kelvin.  Pressure   0.98700 Atm.
 Atom     1 has atomic number  1 and mass   1.00783

 Molecular mass:     2.01565 amu.
 Principal axes and moments of inertia in atomic units:
                           1         2         3
     Eigenvalues --     0.00000   0.98695   0.98695
           X           -0.00000   1.00000  -0.00000
           Y            0.00000   0.00000   1.00000
           Z            1.00000   0.00000  -0.00000
 This molecule is a prolate symmetric top.
 Rotational symmetry number  2.
 Rotational temperature (Kelvin)     87.75877
 Rotational constant (GHZ):        1828.595878
 Zero-point vibrational energy      26738.5 (Joules/Mol)
                                    6.39066 (Kcal/Mol)
 Warning -- explicit consideration of   1 degrees of freedom as
           vibrations may cause significant error
 Vibrational temperatures:   6431.81
          (Kelvin)

 Zero-point correction=                           0.010184 (Hartree/Particle)
 Thermal correction to Energy=                    0.057545
 Thermal correction to Enthalpy=                  0.073379
 Thermal correction to Gibbs Free Energy=        -0.343951
 Sum of electronic and zero-point Energies=             -1.158218
 Sum of electronic and thermal Energies=                -1.110857
 Sum of electronic and thermal Enthalpies=              -1.095023
 Sum of electronic and thermal Free Energies=           -1.512353

                     E (Thermal)             CV                S
                      KCal/Mol        Cal/Mol-Kelvin    Cal/Mol-Kelvin
 Total                   36.110              6.702             52.376
 Electronic               0.000              0.000              0.000
 Translational           14.904              2.981             42.114
 Rotational               9.936              1.987              8.643
 Vibrational             11.270              1.734              1.618
 Vibration     1         11.270              1.734              1.618

 Normal termination of Gaussian 16 at Mon Jul 25 13:49:49 2022.
