 Gaussian 16, Revision C.01,

 ----------------------------------------------------------------------
 # opt freq=hinderedrotor M062X/6-311++g(d,p) symm=veryloose press=0.98
 7
 ----------------------------------------------------------------------

 ------
 CCCC_1
 ------
 Symbolic Z-matrix:
 Charge =  0 Multiplicity = 1

 SCF Done:  E(RM062X) =  -158.403596696     A.U. after   10 cycles
 SCF Done:  E(RM062X) =  -158.404093368     A.U. after    8 cycles
 SCF Done:  E(RM062X) =  -158.404139566     A.U. after    8 cycles
 Optimization completed.
    -- Stationary point found.
 Normal termination of Gaussian 16 at Mon Jul 25 13:49:27 2022.

 ----------------------------------------------------------------------
 #N Geom=AllCheck Guess=TCheck SCRF=Check GenChk RM062X/6-311++G(d,p) F
 req
 ----------------------------------------------------------------------

 Structure from the checkpoint file:  "CCCC.chk"
 ------
 CCCC_1
 ------
 Charge =  0 Multiplicity = 1

 SCF Done:  E(RM062X) =  -158.404139566     A.U. after    1 cycles

 The electronic state is 1-AG.
 Alpha  occ. eigenvalues --  -10.52694 -10.52656 -10.51996 -10.51996  -0.89337
 Alpha  occ. eigenvalues --   -0.81676  -0.71550  -0.65705  -0.54029  -0.49270
 Alpha  occ. eigenvalues --   -0.48482  -0.47667  -0.42948  -0.41088  -0.39076
 Alpha  occ. eigenvalues --   -0.38083  -0.37853
 Alpha virt. eigenvalues --    0.00156   0.01350   0.01853   0.02020   0.04025
 Alpha virt. eigenvalues --    0.04431   0.04928   0.05141   0.07102   0.07624
 Alpha virt. eigenvalues --    0.08224   0.08880   0.11482   0.11628   0.13629

 Mulliken charges:
               1
     1  C   -0.560594
     2  C   -0.174938
     3  C   -0.174938
     4  C   -0.560594
     5  H    0.155708
     6  H    0.146749
     7  H    0.146749
     8  H    0.143162
     9  H    0.143162
    10  H    0.143162
    11  H    0.143162
    12  H    0.146749
    13  H    0.155708
    14  H    0.146749
 Sum of Mulliken charges =  -0.00000

 Dipole moment (field-independent basis, Debye):
    X=              0.0000    Y=              0.0000    Z=              0.0000  Tot=              0.0000
 Quadrupole moment (field-independent basis, Debye-Ang):
   XX=            -28.6770   YY=            -29.5612   ZZ=            -28.1776
   XY=             -0.0556   XZ=             -0.0000   YZ=              0.0000

  Exact polarizability:      49.055      -3.198      55.859       0.000      -0.000      45.426
 Approx polarizability:      55.976       0.490      55.768      -0.000       0.000      55.764

 Optimization completed.
    -- Stationary point found.
 Normal termination of Gaussian 16 at Mon Jul 25 13:50:30 2022.

 ----------------------------------------------------------------------
 # freq=(readfc,hinderedrotor) temp=200 press=0.987 geom=allcheck guess
 =read
 ----------------------------------------------------------------------

 Structure from the checkpoint file:  "CCCC.chk"
 ------
 CCCC_1
 ------
 Charge =  0 Multiplicity = 1

 Normal termination of Gaussian 16 at Mon Jul 25 13:50:31 2022.

 ----------------------------------------------------------------------
 # freq=(readfc,hinderedrotor) temp=250 press=0.987 geom=allcheck guess
 =read
 ----------------------------------------------------------------------

 Structure from the checkpoint file:  "CCCC.chk"
 ------
 CCCC_1
 ------
 Charge =  0 Multiplicity = 1

 Normal termination of Gaussian 16 at Mon Jul 25 13:50:31 2022.

 ----------------------------------------------------------------------
 # freq=(readfc,hinderedrotor) temp=300 press=0.987 geom=allcheck guess
 =read
 ----------------------------------------------------------------------

 Structure from the checkpoint file:  "CCCC.chk"
 ------
 CCCC_1
 ------
 Charge =  0 Multiplicity = 1

 ----------------------------------------------------------------------
 # freq=(readfc,hinderedrotor) temp=350 press=0.987 geom=allcheck guess
 =read
 ----------------------------------------------------------------------

 Structure from the checkpoint file:  "CCCC.chk"
 ------
 CCCC_1
 ------
 Charge =  0 Multiplicity = 1

 Normal termination of Gaussian 16 at Mon Jul 25 13:51:01 2022.
 Normal termination of Gaussian 16 at Mon Jul 25 13:51:02 2022.
 Normal termination of Gaussian 16 at Mon Jul 25 13:51:02 2022.
 Gaussian 16:  ES64L-G16RevC.01  3-Jul-2019

                         Standard orientation:
 ---------------------------------------------------------------------
 Center     Atomic      Atomic             Coordinates (Angstroms)
 Number     Number       Type             X           Y           Z
 ---------------------------------------------------------------------
      1          6           0       -0.704770    1.821416    0.000000
      2          6           0       -0.704770    0.294237    0.000000
      3          6           0        0.704770   -0.294237    0.000000
      4          6           0        0.704770   -1.821416    0.000000
      5          1           0       -1.719743    2.223692    0.000000
      6          1           0       -0.190074    2.210006   -0.882540
      7          1           0       -0.190074    2.210006    0.882540
      8          1           0       -1.247290   -0.075087   -0.876992
      9          1           0       -1.247290   -0.075087    0.876992
     10          1           0        1.247290    0.075087    0.876992
     11          1           0        1.247290    0.075087   -0.876992
     12          1           0        0.190074   -2.210006    0.882540
     13          1           0        1.719743   -2.223692    0.000000
     14          1           0        0.190074   -2.210006   -0.882540
 ---------------------------------------------------------------------

                      1                      2                      3
                     ?A                     ?B                     ?C
 Frequencies --    117.4365               227.6014               260.8674
 Red. masses --      1.8686                 1.0758                 1.1202
 Frc consts  --      0.0152                 0.0328                 0.0449
 IR Inten    --      0.0116                 0.0000                 0.0000

                      4                      5                      6
                     ?D                     ?E                     ?B
 Frequencies --    262.4023               430.1677               731.9771
 Red. masses --      2.2481                 2.7148                 1.0713
 Frc consts  --      0.0912                 0.2960                 0.3382
 IR Inten    --      0.0161                 0.0000                 3.5707

                      7                      8                      9
                     ?C                     ?F                     ?B
 Frequencies --    810.8091               855.5090               961.4153
 Red. masses --      1.1265                 1.9073                 1.1208
 Frc consts  --      0.4363                 0.8225                 0.6104
 IR Inten    --      0.0000                 0.0000                 1.1347

                     10                     11                     12
                     ?G                     ?H                     ?I
 Frequencies --    981.9681              1037.5290              1085.7535
 Red. masses --      1.2390                 3.1233                 2.1703
 Frc consts  --      0.7039                 1.9809                 1.5074
 IR Inten    --      7.5985                 0.0357                 0.0000

                     13                     14                     15
                     ?J                     ?K                     ?L
 Frequencies --   1176.1906              1207.9912              1289.4294
 Red. masses --      2.0912                 1.7439                 1.2449
 Frc consts  --      1.7045                 1.4994                 1.2195
 IR Inten    --      0.0000                 0.0000                 0.1150

                     16                     17                     18
                     ?L                     ?C                     ?L
 Frequencies --   1318.0549              1332.3201              1398.1439
 Red. masses --      1.3540                 1.0702                 1.5431
 Frc consts  --      1.3860                 1.1193                 1.7773
 IR Inten    --      0.9742                 0.0000                 0.0000

                     19                     20                     21
                     ?L                     ?G                     ?L
 Frequencies --   1413.0518              1414.8246              1489.1777
 Red. masses --      1.3242                 1.2653                 1.0664
 Frc consts  --      1.5578                 1.4922                 1.3933
 IR Inten    --      0.0000                 9.2397                 0.0000

                     22                     23                     24
                     ?L                     BG                     AU
 Frequencies --   1494.1276              1504.4946              1506.0806
 Red. masses --      1.0542                 1.0434                 1.0355
 Frc consts  --      1.3866                 1.3914                 1.3838
 IR Inten    --      1.9687                 0.0000                18.2461

                     25                     26                     27
                     ?L                     ?L                     ?L
 Frequencies --   1509.1764              1513.4049              3042.8429
 Red. masses --      1.0645                 1.0834                 1.0592
 Frc consts  --      1.4285                 1.4621                 5.7784
 IR Inten    --      0.0000                13.2565                 0.0000

                     28                     29                     30
                     ?L                     BU                     AG
 Frequencies --   3051.0207              3057.0554              3057.0918
 Red. masses --      1.0570                 1.0387                 1.0358
 Frc consts  --      5.7972                 5.7191                 5.7037
 IR Inten    --     28.9347                79.1469                 0.0000

                     31                     32                     33
                     ?C                     ?B                     ?C
 Frequencies --   3069.9097              3091.4424              3125.0134
 Red. masses --      1.1015                 1.1049                 1.1031
 Frc consts  --      6.1162                 6.2216                 6.3471
 IR Inten    --      0.0000                16.9548                 0.0000

                     34                     35                     36
                     ?B                     ?L                     ?L
 Frequencies --   3128.4077              3132.6342              3133.2271
 Red. masses --      1.1028                 1.1020                 1.1017
 Frc consts  --      6.3590                 6.3718                 6.3721
 IR Inten    --     88.4085                 0.0000                59.9700

 - Thermochemistry -
 -------------------
 Temperature  5000.000 Kelvin.  Pressure   0.98700 Atm.
 Atom     1 has atomic number  6 and mass  12.00000

 Molecular mass:    58.07825 amu.
 Principal axes and moments of inertia in atomic units:
                           1         2         3
     Eigenvalues --    76.98667 494.66681 527.08362
           X           -0.42274   0.90625   0.00000
           Y            0.90625   0.42274   0.00000
           Z            0.00000  -0.00000   1.00000
 This molecule is an asymmetric top.
 Rotational symmetry number  2.
 Rotational temperatures (Kelvin)      1.12505     0.17510     0.16433
 Rotational constants (GHZ):          23.44225     3.64840     3.42401
 Zero-point vibrational energy     348224.3 (Joules/Mol)
                                   83.22760 (Kcal/Mol)
 Warning -- explicit consideration of  36 degrees of freedom as
           vibrations may cause significant error
 Identified internal rotation modes:
   43   2   3
 Vibrational temperatures:    168.96   327.47   375.33   377.54   618.92
          (Kelvin)           1053.15  1166.57  1230.89  1383.26  1412.83
                             1492.77  1562.16  1692.28  1738.03  1855.20
                             1896.39  1916.91  2011.62  2033.07  2035.62
                             2142.59  2149.72  2164.63  2166.91  2171.37
                             2177.45  4377.97  4389.74  4398.42  4398.47
                             4416.92  4447.90  4496.20  4501.08  4507.16
                             4508.02

 Zero-point correction=                           0.132632 (Hartree/Particle)
 Thermal correction to Energy=                    0.631522
 Thermal correction to Enthalpy=                  0.647357
 Thermal correction to Gibbs Free Energy=        -1.177249
 Sum of electronic and zero-point Energies=           -158.271508
 Sum of electronic and thermal Energies=              -157.772617
 Sum of electronic and thermal Enthalpies=            -157.756783
 Sum of electronic and thermal Free Energies=         -159.581388

                     E (Thermal)             CV                S
                      KCal/Mol        Cal/Mol-Kelvin    Cal/Mol-Kelvin
 Total                  396.286             75.780            228.991
 Corrected for
 internal rot.          385.569             72.869            225.850
 Electronic               0.000              0.000              0.000
 Translational           14.904              2.981             52.132
 Rotational              14.904              2.981             31.537
 Vibrational            366.478             69.819            145.322
 Vibration     1          9.937              1.987              8.719
 Vibration     2          9.940              1.986              7.404
 Vibration     3          9.941              1.986              7.133
 Vibration     4          9.941              1.986              7.122
 Vibration     5          9.949              1.985              6.140
 Vibration     6          9.973              1.980              5.086
 Vibration     7          9.981              1.978              4.884
 Vibration     8          9.986              1.977              4.778
 Vibration     9          9.999              1.975              4.547
 Vibration    10         10.002              1.974              4.505
 Vibration    11         10.010              1.973              4.397
 Vibration    12         10.017              1.971              4.307
 Vibration    13         10.031              1.968              4.150
 Vibration    14         10.036              1.967              4.097
 Vibration    15         10.050              1.965              3.969
 Vibration    16         10.055              1.964              3.926
 Vibration    17         10.057              1.963              3.905
 Vibration    18         10.070              1.961              3.810
 Vibration    19         10.073              1.960              3.789
 Vibration    20         10.073              1.960              3.787
 Vibration    21         10.088              1.957              3.686
 Vibration    22         10.089              1.957              3.680
 Vibration    23         10.091              1.956              3.666
 Vibration    24         10.091              1.956              3.664
 Vibration    25         10.092              1.956              3.660
 Vibration    26         10.093              1.956              3.655
 Vibration    27         10.563              1.865              2.313
 Vibration    28         10.566              1.864              2.308
 Vibration    29         10.569              1.864              2.305
 Vibration    30         10.569              1.864              2.305
 Vibration    31         10.574              1.863              2.297
 Vibration    32         10.583              1.861              2.284
 Vibration    33         10.597              1.859              2.264
 Vibration    34         10.598              1.858              2.262
 Vibration    35         10.600              1.858              2.259
 Vibration    36         10.600              1.858              2.259

 Normal termination of Gaussian 16 at Mon Jul 25 13:51:03 2022.
